
.Version 9.10.5 of ABINIT 
.(MPI version, prepared for a x86_64_linux_gnu12.3 computer) 

.Copyright (C) 1998-2022 ABINIT group . 
 ABINIT comes with ABSOLUTELY NO WARRANTY.
 It is free software, and you are welcome to redistribute it
 under certain conditions (GNU General Public License,
 see ~abinit/COPYING or http://www.gnu.org/copyleft/gpl.txt).

 ABINIT is a project of the Universite Catholique de Louvain,
 Corning Inc. and other collaborators, see ~abinit/doc/developers/contributors.txt .
 Please read https://docs.abinit.org/theory/acknowledgments for suggested
 acknowledgments of the ABINIT effort.
 For more information, see https://www.abinit.org .

.Starting date : Fri 15 Mar 2024.
- ( at 14h59 )
  
- input  file    -> /gpfs/projects/acad/leds/DataBase_examples/adding_entry_to_DB/flow_lumi/w0/t3/run.abi
- output file    -> /gpfs/projects/acad/leds/DataBase_examples/adding_entry_to_DB/flow_lumi/w0/t3/run.abo
- root for input  files -> indata/in
- root for output files -> outdata/out

- inpspheads : Reading pseudopotential header in XML form from 
-   /gpfs/home/acad/ucl-modl/jbouq/paw-sr-11_pbe_standard_xml/Eu.xml
- inpspheads : Reading pseudopotential header in XML form from 
-   /gpfs/home/acad/ucl-modl/jbouq/paw-sr-11_pbe_standard_xml/Sr.xml
- inpspheads : Reading pseudopotential header in XML form from 
-   /gpfs/home/acad/ucl-modl/jbouq/paw-sr-11_pbe_standard_xml/Li.xml
- inpspheads : Reading pseudopotential header in XML form from 
-   /gpfs/home/acad/ucl-modl/jbouq/paw-sr-11_pbe_standard_xml/Al.xml
- inpspheads : Reading pseudopotential header in XML form from 
-   /gpfs/home/acad/ucl-modl/jbouq/paw-sr-11_pbe_standard_xml/N.xml
- inpspheads : Reading pseudopotential header in XML form from 
-   /gpfs/home/acad/ucl-modl/jbouq/paw-sr-11_pbe_standard_xml/O.xml

 Symmetries : space group P2/m (# 10); Bravais mP (primitive monocl.)
================================================================================
 Values of the parameters that define the memory need of the present run
     intxc =       0    ionmov =       0      iscf =      17    lmnmax =      32
     lnmax =       8     mgfft =      54  mpssoang =       4    mqgrid =    3641
     natom =      54  nloc_mem =       2    nspden =       2   nspinor =       1
    nsppol =       2      nsym =       4    n1xccc =       1    ntypat =       6
    occopt =       2   xclevel =       2
-    mband =         180        mffmem =           1         mkmem =           1
       mpw =          51          nfft =       19440          nkpt =           1
Pmy_natom=         3
 PAW method is used; the additional fine FFT grid is defined by:
   mgfftf=        90    nfftf =     54000
================================================================================
P This job should need less than                      53.710 Mbytes of memory.
  Rough estimation (10% accuracy) of disk space for files :
_ WF disk file :      1.683 Mbytes ; DEN or POT disk file :      0.826 Mbytes.
================================================================================

--------------------------------------------------------------------------------
------------- Echo of variables that govern the present computation ------------
--------------------------------------------------------------------------------
-
- outvars: echo of selected default values                                      
-   iomode0 =  0 , fftalg0 =312 , wfoptalg0 = 10
-
- outvars: echo of global parameters not present in the input file              
-  max_nthreads =    0
-
 -outvars: echo values of preprocessed input variables --------
-          iomode           1
            acell      1.0000000000E+00  1.0000000000E+00  1.0000000000E+00 Bohr
              amu      1.51965000E+02  8.76200000E+01  6.94100000E+00
                       2.69815390E+01  1.40067400E+01  1.59994000E+01
        autoparal           1
           bandpp           6
          chkprim           0
      chksymbreak           0
     densfor_pred           6
           diemac      5.00000000E+00
             ecut      1.00000000E+01 Hartree
-          fftalg         312
           irdden           1
           istwfk        2
              ixc     -101130
            jpawu      2.57245278E-02  0.00000000E+00  0.00000000E+00  0.00000000E+00  0.00000000E+00  0.00000000E+00 Hartree
         kptrlatt        1    0    0      0    1    0      0    0    1
          kptrlen      1.48514103E+01
            lpawu           3      -1      -1      -1      -1      -1
P           mkmem           1
            natom          54
            nband         180     180
           nbdbuf          30
            ngfft          45      48      54
          ngfftdg          60      60      90
             nkpt           1
-          npband          10
-           npfft           6
-        np_spkpt           2
           nspden           2
           nsppol           2
            nstep         300
             nsym           4
           ntypat           6
              occ      1.000000  1.000000  1.000000  1.000000  1.000000  1.000000
                       1.000000  1.000000  1.000000  1.000000  1.000000  1.000000
                       1.000000  1.000000  1.000000  1.000000  1.000000  1.000000
                       1.000000  1.000000  1.000000  1.000000  1.000000  1.000000
                       1.000000  1.000000  1.000000  1.000000  1.000000  1.000000
                       1.000000  1.000000  1.000000  1.000000  1.000000  1.000000
                       1.000000  1.000000  1.000000  1.000000  1.000000  1.000000
                       1.000000  1.000000  1.000000  1.000000  1.000000  1.000000
                       1.000000  1.000000  1.000000  1.000000  1.000000  1.000000
                       1.000000  1.000000  1.000000  1.000000  1.000000  1.000000
                       1.000000  1.000000  1.000000  1.000000  1.000000  1.000000
                       1.000000  1.000000  1.000000  1.000000  1.000000  1.000000
                       1.000000  1.000000  1.000000  1.000000  1.000000  1.000000
                       1.000000  1.000000  1.000000  1.000000  1.000000  1.000000
                       1.000000  1.000000  1.000000  1.000000  1.000000  1.000000
                       1.000000  1.000000  1.000000  1.000000  1.000000  1.000000
                       1.000000  1.000000  1.000000  1.000000  1.000000  1.000000
                       1.000000  1.000000  1.000000  1.000000  1.000000  1.000000
                       1.000000  1.000000  1.000000  1.000000  1.000000  1.000000
                       1.000000  1.000000  1.000000  1.000000  1.000000  1.000000
                       1.000000  1.000000  1.000000  1.000000  1.000000  1.000000
                       1.000000  1.000000  1.000000  1.000000  1.000000  1.000000
                       1.000000  1.000000  1.000000  1.000000  1.000000  1.000000
                       0.000000  1.000000  0.000000  0.000000  0.000000  0.000000
                       0.000000  0.000000  0.000000  0.000000  0.000000  0.000000
                       0.000000  0.000000  0.000000  0.000000  0.000000  0.000000
                       0.000000  0.000000  0.000000  0.000000  0.000000  0.000000
                       0.000000  0.000000  0.000000  0.000000  0.000000  0.000000
                       0.000000  0.000000  0.000000  0.000000  0.000000  0.000000
                       0.000000  0.000000  0.000000  0.000000  0.000000  0.000000
                       1.000000  1.000000  1.000000  1.000000  1.000000  1.000000
                       1.000000  1.000000  1.000000  1.000000  1.000000  1.000000
                       1.000000  1.000000  1.000000  1.000000  1.000000  1.000000
                       1.000000  1.000000  1.000000  1.000000  1.000000  1.000000
                       1.000000  1.000000  1.000000  1.000000  1.000000  1.000000
                       1.000000  1.000000  1.000000  1.000000  1.000000  1.000000
                       1.000000  1.000000  1.000000  1.000000  1.000000  1.000000
                       1.000000  1.000000  1.000000  1.000000  1.000000  1.000000
                       1.000000  1.000000  1.000000  1.000000  1.000000  1.000000
                       1.000000  1.000000  1.000000  1.000000  1.000000  1.000000
                       1.000000  1.000000  1.000000  1.000000  1.000000  1.000000
                       1.000000  1.000000  1.000000  1.000000  1.000000  1.000000
                       1.000000  1.000000  1.000000  1.000000  1.000000  1.000000
                       1.000000  1.000000  1.000000  1.000000  1.000000  1.000000
                       1.000000  1.000000  1.000000  1.000000  1.000000  1.000000
                       1.000000  1.000000  1.000000  1.000000  1.000000  1.000000
                       1.000000  1.000000  1.000000  1.000000  1.000000  1.000000
                       1.000000  1.000000  1.000000  1.000000  1.000000  1.000000
                       1.000000  1.000000  1.000000  1.000000  1.000000  1.000000
                       1.000000  1.000000  1.000000  1.000000  1.000000  1.000000
                       1.000000  1.000000  1.000000  1.000000  1.000000  1.000000
                       1.000000  1.000000  1.000000  1.000000  1.000000  1.000000
                       0.000000  0.000000  0.000000  0.000000  0.000000  0.000000
                       0.000000  0.000000  0.000000  0.000000  0.000000  0.000000
                       0.000000  0.000000  0.000000  0.000000  0.000000  0.000000
                       0.000000  0.000000  0.000000  0.000000  0.000000  0.000000
                       0.000000  0.000000  0.000000  0.000000  0.000000  0.000000
                       0.000000  0.000000  0.000000  0.000000  0.000000  0.000000
                       0.000000  0.000000  0.000000  0.000000  0.000000  0.000000
                       0.000000  0.000000  0.000000  0.000000  0.000000  0.000000
           occopt           2
        paral_kgb           1
        pawecutdg      2.00000000E+01 Hartree
         pawmixdg           1
            prtwf           0
            rprim      1.4852017170E+01  7.2879070107E-05  0.0000000000E+00
                       7.2879070106E-05  1.4851410311E+01  0.0000000000E+00
                       0.0000000000E+00  0.0000000000E+00  1.8084519032E+01
          spgroup          10
           spinat      0.0000000000E+00  0.0000000000E+00  7.0000000000E+00
                       0.0000000000E+00  0.0000000000E+00  0.0000000000E+00
                       0.0000000000E+00  0.0000000000E+00  0.0000000000E+00
                       0.0000000000E+00  0.0000000000E+00  0.0000000000E+00
                       0.0000000000E+00  0.0000000000E+00  0.0000000000E+00
                       0.0000000000E+00  0.0000000000E+00  0.0000000000E+00
                       0.0000000000E+00  0.0000000000E+00  0.0000000000E+00
                       0.0000000000E+00  0.0000000000E+00  0.0000000000E+00
                       0.0000000000E+00  0.0000000000E+00  0.0000000000E+00
                       0.0000000000E+00  0.0000000000E+00  0.0000000000E+00
                       0.0000000000E+00  0.0000000000E+00  0.0000000000E+00
                       0.0000000000E+00  0.0000000000E+00  0.0000000000E+00
                       0.0000000000E+00  0.0000000000E+00  0.0000000000E+00
                       0.0000000000E+00  0.0000000000E+00  0.0000000000E+00
                       0.0000000000E+00  0.0000000000E+00  0.0000000000E+00
                       0.0000000000E+00  0.0000000000E+00  0.0000000000E+00
                       0.0000000000E+00  0.0000000000E+00  0.0000000000E+00
                       0.0000000000E+00  0.0000000000E+00  0.0000000000E+00
                       0.0000000000E+00  0.0000000000E+00  0.0000000000E+00
                       0.0000000000E+00  0.0000000000E+00  0.0000000000E+00
                       0.0000000000E+00  0.0000000000E+00  0.0000000000E+00
                       0.0000000000E+00  0.0000000000E+00  0.0000000000E+00
                       0.0000000000E+00  0.0000000000E+00  0.0000000000E+00
                       0.0000000000E+00  0.0000000000E+00  0.0000000000E+00
                       0.0000000000E+00  0.0000000000E+00  0.0000000000E+00
                       0.0000000000E+00  0.0000000000E+00  0.0000000000E+00
                       0.0000000000E+00  0.0000000000E+00  0.0000000000E+00
                       0.0000000000E+00  0.0000000000E+00  0.0000000000E+00
                       0.0000000000E+00  0.0000000000E+00  0.0000000000E+00
                       0.0000000000E+00  0.0000000000E+00  0.0000000000E+00
                       0.0000000000E+00  0.0000000000E+00  0.0000000000E+00
                       0.0000000000E+00  0.0000000000E+00  0.0000000000E+00
                       0.0000000000E+00  0.0000000000E+00  0.0000000000E+00
                       0.0000000000E+00  0.0000000000E+00  0.0000000000E+00
                       0.0000000000E+00  0.0000000000E+00  0.0000000000E+00
                       0.0000000000E+00  0.0000000000E+00  0.0000000000E+00
                       0.0000000000E+00  0.0000000000E+00  0.0000000000E+00
                       0.0000000000E+00  0.0000000000E+00  0.0000000000E+00
                       0.0000000000E+00  0.0000000000E+00  0.0000000000E+00
                       0.0000000000E+00  0.0000000000E+00  0.0000000000E+00
                       0.0000000000E+00  0.0000000000E+00  0.0000000000E+00
                       0.0000000000E+00  0.0000000000E+00  0.0000000000E+00
                       0.0000000000E+00  0.0000000000E+00  0.0000000000E+00
                       0.0000000000E+00  0.0000000000E+00  0.0000000000E+00
                       0.0000000000E+00  0.0000000000E+00  0.0000000000E+00
                       0.0000000000E+00  0.0000000000E+00  0.0000000000E+00
                       0.0000000000E+00  0.0000000000E+00  0.0000000000E+00
                       0.0000000000E+00  0.0000000000E+00  0.0000000000E+00
                       0.0000000000E+00  0.0000000000E+00  0.0000000000E+00
                       0.0000000000E+00  0.0000000000E+00  0.0000000000E+00
                       0.0000000000E+00  0.0000000000E+00  0.0000000000E+00
                       0.0000000000E+00  0.0000000000E+00  0.0000000000E+00
                       0.0000000000E+00  0.0000000000E+00  0.0000000000E+00
                       0.0000000000E+00  0.0000000000E+00  0.0000000000E+00
           symrel      1  0  0   0  1  0   0  0  1      -1  0  0   0 -1  0   0  0 -1
                      -1  0  0   0 -1  0   0  0  1       1  0  0   0  1  0   0  0 -1
            tnons      0.0000000  0.0000000  0.0000000    -0.0000000  0.0000000  0.3333333
                      -0.0000000  0.0000000  0.0000000     0.0000000  0.0000000  0.3333333
           toldfe      1.00000000E-05 Hartree
            typat      1  2  2  2  2  2  3  3  3  3  3  3  3  3  3  3  3  3  4  4
                       4  4  4  4  4  4  4  4  4  4  5  5  5  5  5  5  5  5  5  5
                       5  5  6  6  6  6  6  6  6  6  6  6  6  6
            upawu      2.57245278E-01  0.00000000E+00  0.00000000E+00  0.00000000E+00  0.00000000E+00  0.00000000E+00 Hartree
          usepawu           1
           useylm           1
         wfoptalg         114
           xangst      3.9296744939E+00  1.9282971442E-05  1.5949858837E+00
                       3.9296744939E+00  1.9282971442E-05  4.7852586526E+00
                       3.9296744939E+00  1.9282971442E-05  7.9746284148E+00
                       1.9282971441E-05  3.9295139260E+00  1.0070134324E-04
                       1.9282971441E-05  3.9295139260E+00  3.1898710660E+00
                       1.9282971441E-05  3.9295139260E+00  6.3799435337E+00
                       9.4786464191E-01  6.5171786893E+00  1.5949858837E+00
                       9.4801788694E-01  6.5162001979E+00  4.7870264590E+00
                       9.4801788694E-01  6.5162001979E+00  7.9728606084E+00
                       6.9115229119E+00  1.3418877286E+00  1.5949858837E+00
                       6.9113696669E+00  1.3428662200E+00  4.7870264590E+00
                       6.9113696669E+00  1.3428662200E+00  7.9728606084E+00
                       1.3416373449E+00  9.4917149367E-01 -1.4768584789E-04
                       1.3416373449E+00  9.4917149367E-01  3.1901194532E+00
                       1.3423395811E+00  9.4955337907E-01  6.3799435337E+00
                       6.5177502090E+00  6.9098949242E+00 -1.4768584789E-04
                       6.5177502090E+00  6.9098949242E+00  3.1901194532E+00
                       6.5170479727E+00  6.9095130388E+00  6.3799435337E+00
                       2.7468879029E+00  5.3755672544E+00  4.4001427669E-04
                       2.7468879029E+00  5.3755672544E+00  3.1895317530E+00
                       2.7481203507E+00  5.3763059667E+00  6.3799435337E+00
                       5.1124996509E+00  2.4834991634E+00  4.4001427669E-04
                       5.1124996509E+00  2.4834991634E+00  3.1895317530E+00
                       5.1112672031E+00  2.4827604512E+00  6.3799435337E+00
                       2.4839829063E+00  2.7465922583E+00  1.5949858837E+00
                       2.4831428830E+00  2.7490645110E+00  4.7864781737E+00
                       2.4831428830E+00  2.7490645110E+00  7.9734088937E+00
                       5.3754046475E+00  5.1124741596E+00  1.5949858837E+00
                       5.3762446709E+00  5.1100019069E+00  4.7864781737E+00
                       5.3762446709E+00  5.1100019069E+00  7.9734088937E+00
                       4.5867636604E+00  5.7784624501E+00 -1.9742570682E-03
                       4.5867636604E+00  5.7784624501E+00  3.1919460244E+00
                       4.5871385006E+00  5.7819031178E+00  6.3799435337E+00
                       3.2726238935E+00  2.0806039678E+00 -1.9742570682E-03
                       3.2726238935E+00  2.0806039678E+00  3.1919460244E+00
                       3.2722490532E+00  2.0771633001E+00  6.3799435337E+00
                       2.0765953997E+00  4.5862688591E+00  1.5949858837E+00
                       2.0768961780E+00  4.5877495014E+00  4.7852732735E+00
                       2.0768961780E+00  4.5877495014E+00  7.9746137939E+00
                       5.7827921541E+00  3.2727975588E+00  1.5949858837E+00
                       5.7824913758E+00  3.2713169165E+00  4.7852732735E+00
                       5.7824913758E+00  3.2713169165E+00  7.9746137939E+00
                       1.9380724745E+00  6.9965611825E+00 -2.5520762317E-03
                       1.9380724745E+00  6.9965611825E+00  3.1925238436E+00
                       1.9448465581E+00  6.9991034015E+00  6.3799435337E+00
                       5.9213150793E+00  8.6250523535E-01 -2.5520762317E-03
                       5.9213150793E+00  8.6250523535E-01  3.1925238436E+00
                       5.9145409957E+00  8.5996301644E-01  6.3799435337E+00
                       8.6202576552E-01  1.9435889271E+00  1.5949858837E+00
                       8.6136782512E-01  1.9450876853E+00  4.7857510266E+00
                       8.6136782512E-01  1.9450876853E+00  7.9741360407E+00
                       6.9973617883E+00  5.9154774908E+00  1.5949858837E+00
                       6.9980197287E+00  5.9139787326E+00  4.7857510266E+00
                       6.9980197287E+00  5.9139787326E+00  7.9741360407E+00
            xcart      7.4260085849E+00  3.6439535053E-05  3.0140865059E+00
                       7.4260085849E+00  3.6439535053E-05  9.0428283284E+00
                       7.4260085849E+00  3.6439535053E-05  1.5069863715E+01
                       3.6439535052E-05  7.4257051555E+00  1.9029795994E-04
                       3.6439535052E-05  7.4257051555E+00  6.0279827139E+00
                       3.6439535052E-05  7.4257051555E+00  1.2056346022E+01
                       1.7912045842E+00  1.2315682882E+01  3.0140865059E+00
                       1.7914941754E+00  1.2313833801E+01  9.0461689984E+00
                       1.7914941754E+00  1.2313833801E+01  1.5066523045E+01
                       1.3060885465E+01  2.5358003081E+00  3.0140865059E+00
                       1.3060595874E+01  2.5376493890E+00  9.0461689984E+00
                       1.3060595874E+01  2.5376493890E+00  1.5066523045E+01
                       2.5353271515E+00  1.7936741762E+00 -2.7908580621E-04
                       2.5353271515E+00  1.7936741762E+00  6.0284520977E+00
                       2.5366541857E+00  1.7943958350E+00  1.2056346022E+01
                       1.2316762898E+01  1.3057809014E+01 -2.7908580621E-04
                       1.2316762898E+01  1.3057809014E+01  6.0284520977E+00
                       1.2315435863E+01  1.3057087355E+01  1.2056346022E+01
                       5.1908658542E+00  1.0158349920E+01  8.3150647750E-04
                       5.1908658542E+00  1.0158349920E+01  6.0273415054E+00
                       5.1931948430E+00  1.0159745884E+01  1.2056346022E+01
                       9.6612241947E+00  4.6931332702E+00  8.3150647750E-04
                       9.6612241947E+00  4.6931332702E+00  6.0273415054E+00
                       9.6588952060E+00  4.6917373064E+00  1.2056346022E+01
                       4.6940474118E+00  5.1903071669E+00  3.0140865059E+00
                       4.6924599976E+00  5.1949790475E+00  9.0451328893E+00
                       4.6924599976E+00  5.1949790475E+00  1.5067559155E+01
                       1.0158042637E+01  9.6611760230E+00  3.0140865059E+00
                       1.0159630051E+01  9.6565041425E+00  9.0451328893E+00
                       1.0159630051E+01  9.6565041425E+00  1.5067559155E+01
                       8.6677271543E+00  1.0919711500E+01 -3.7308051748E-03
                       8.6677271543E+00  1.0919711500E+01  6.0319038170E+00
                       8.6684354997E+00  1.0926213419E+01  1.2056346022E+01
                       6.1843628946E+00  3.9317716902E+00 -3.7308051748E-03
                       6.1843628946E+00  3.9317716902E+00  6.0319038170E+00
                       6.1836545492E+00  3.9252697705E+00  1.2056346022E+01
                       3.9241965943E+00  8.6667921154E+00  3.0140865059E+00
                       3.9247649829E+00  8.6695901239E+00  9.0428559579E+00
                       3.9247649829E+00  8.6695901239E+00  1.5069836086E+01
                       1.0927893455E+01  6.1846910746E+00  3.0140865059E+00
                       1.0927325066E+01  6.1818930661E+00  9.0428559579E+00
                       1.0927325066E+01  6.1818930661E+00  1.5069836086E+01
                       3.6624262025E+00  1.3221584507E+01 -4.8227251483E-03
                       3.6624262025E+00  1.3221584507E+01  6.0329957370E+00
                       3.6752273653E+00  1.3226388604E+01  1.2056346022E+01
                       1.1189663846E+01  1.6298986830E+00 -4.8227251483E-03
                       1.1189663846E+01  1.6298986830E+00  6.0329957370E+00
                       1.1176862684E+01  1.6250945855E+00  1.2056346022E+01
                       1.6289926163E+00  3.6728507871E+00  3.0140865059E+00
                       1.6277492891E+00  3.6756830296E+00  9.0437587805E+00
                       1.6277492891E+00  3.6756830296E+00  1.5068933263E+01
                       1.3223097433E+01  1.1178632403E+01  3.0140865059E+00
                       1.3224340760E+01  1.1175800160E+01  9.0437587805E+00
                       1.3224340760E+01  1.1175800160E+01  1.5068933263E+01
             xred      5.0000000000E-01  2.9463205325E-22  1.6666666670E-01
                       5.0000000000E-01  2.9463205325E-22  5.0003145300E-01
                       5.0000000000E-01  2.9463205325E-22  8.3330188040E-01
                      -5.5511151231E-17  5.0000000000E-01  1.0522699531E-05
                      -5.5511151231E-17  5.0000000000E-01  3.3332281070E-01
                      -5.5511151231E-17  5.0000000000E-01  6.6666666670E-01
                       1.2059938580E-01  8.2925956760E-01  1.6666666670E-01
                       1.2061888485E-01  8.2913506210E-01  5.0021617840E-01
                       1.2061888485E-01  8.2913506210E-01  8.3311715500E-01
                       8.7940061420E-01  1.7074043240E-01  1.6666666670E-01
                       8.7938111515E-01  1.7086493790E-01  5.0021617840E-01
                       8.7938111515E-01  1.7086493790E-01  8.3311715500E-01
                       1.7070532040E-01  1.2077383210E-01 -1.5432304598E-05
                       1.7070532040E-01  1.2077383210E-01  3.3334876570E-01
                       1.7079467060E-01  1.2082242360E-01  6.6666666670E-01
                       8.2929467960E-01  8.7922616790E-01 -1.5432304598E-05
                       8.2929467960E-01  8.7922616790E-01  3.3334876570E-01
                       8.2920532940E-01  8.7917757640E-01  6.6666666670E-01
                       3.4950242420E-01  6.8399729290E-01  4.5978910250E-05
                       3.4950242420E-01  6.8399729290E-01  3.3328735449E-01
                       3.4965923670E-01  6.8409128750E-01  6.6666666670E-01
                       6.5049757580E-01  3.1600270710E-01  4.5978910250E-05
                       6.5049757580E-01  3.1600270710E-01  3.3328735449E-01
                       6.5034076330E-01  3.1590871250E-01  6.6666666670E-01
                       3.1605282220E-01  3.4948089270E-01  1.6666666670E-01
                       3.1594593860E-01  3.4979546810E-01  5.0015888580E-01
                       3.1594593860E-01  3.4979546810E-01  8.3317444760E-01
                       6.8394717780E-01  6.5051910730E-01  1.6666666670E-01
                       6.8405406140E-01  6.5020453190E-01  5.0015888580E-01
                       6.8405406140E-01  6.5020453190E-01  8.3317444760E-01
                       5.8360244740E-01  7.3526141550E-01 -2.0629828022E-04
                       5.8360244740E-01  7.3526141550E-01  3.3353963168E-01
                       5.8365013880E-01  7.3569921340E-01  6.6666666670E-01
                       4.1639755260E-01  2.6473858450E-01 -2.0629828022E-04
                       4.1639755260E-01  2.6473858450E-01  3.3353963168E-01
                       4.1634986120E-01  2.6430078660E-01  6.6666666670E-01
                       2.6421690870E-01  5.8356564650E-01  1.6666666670E-01
                       2.6425517790E-01  5.8375404650E-01  5.0003298080E-01
                       2.6425517790E-01  5.8375404650E-01  8.3330035260E-01
                       7.3578309130E-01  4.1643435350E-01  1.6666666670E-01
                       7.3574482210E-01  4.1624595350E-01  5.0003298080E-01
                       7.3574482210E-01  4.1624595350E-01  8.3330035260E-01
                       2.4659016210E-01  8.9025663280E-01 -2.6667699261E-04
                       2.4659016210E-01  8.9025663280E-01  3.3360001039E-01
                       2.4745207460E-01  8.9058010610E-01  6.6666666670E-01
                       7.5340983790E-01  1.0974336720E-01 -2.6667699261E-04
                       7.5340983790E-01  1.0974336720E-01  3.3360001039E-01
                       7.5254792540E-01  1.0941989390E-01  6.6666666670E-01
                       1.0968036020E-01  2.4730599430E-01  1.6666666670E-01
                       1.0959664490E-01  2.4749670000E-01  5.0008290320E-01
                       1.0959664490E-01  2.4749670000E-01  8.3325043020E-01
                       8.9031963980E-01  7.5269400570E-01  1.6666666670E-01
                       8.9040335510E-01  7.5250330000E-01  5.0008290320E-01
                       8.9040335510E-01  7.5250330000E-01  8.3325043020E-01
            znucl       63.00000   38.00000    3.00000   13.00000    7.00000    8.00000

================================================================================

 chkinp: Checking input parameters for consistency.

================================================================================
== DATASET  1 ==================================================================
-   mpi_nproc: 120, omp_nthreads: -1 (-1 if OMP is not activated)


--- !DatasetInfo
iteration_state: {dtset: 1, }
dimensions: {natom: 54, nkpt: 1, mband: 180, nsppol: 2, nspinor: 1, nspden: 2, mpw: 51, }
cutoff_energies: {ecut:  10.0, pawecutdg:  20.0, }
electrons: {nelect:   2.71000000E+02, charge:   0.00000000E+00, occopt:   2.00000000E+00, tsmear:   1.00000000E-02, }
meta: {optdriver: 0, ionmov: 0, optcell: 0, iscf: 17, paral_kgb: 1, }
...

 Real(R)+Recip(G) space primitive vectors, cartesian coordinates (Bohr,Bohr^-1):
 R(1)= 14.8520172  0.0000729  0.0000000  G(1)=  0.0673309 -0.0000003  0.0000000
 R(2)=  0.0000729 14.8514103  0.0000000  G(2)= -0.0000003  0.0673337  0.0000000
 R(3)=  0.0000000  0.0000000 18.0845190  G(3)=  0.0000000  0.0000000  0.0552959
 Unit cell volume ucvol=  3.9889639E+03 bohr^3
 Angles (23,13,12)=  9.00000000E+01  9.00000000E+01  8.99994377E+01 degrees

 Coarse grid specifications (used for wave-functions):

 getcut: wavevector=  0.0000  0.0000  0.0000  ngfft=  45  48  54
         ecut(hartree)=     10.000   => boxcut(ratio)=   2.08114

 Fine grid specifications (used for densities):

 getcut: wavevector=  0.0000  0.0000  0.0000  ngfft=  60  60  90
         ecut(hartree)=     20.000   => boxcut(ratio)=   2.00671

--- Pseudopotential description ------------------------------------------------
- pspini: atom type   1  psp file is /gpfs/home/acad/ucl-modl/jbouq/paw-sr-11_pbe_standard_xml/Eu.xml
- pspatm: opening atomic psp file    /gpfs/home/acad/ucl-modl/jbouq/paw-sr-11_pbe_standard_xml/Eu.xml
- pspatm : Reading pseudopotential header in XML form from /gpfs/home/acad/ucl-modl/jbouq/paw-sr-11_pbe_standard_xml/Eu.xml
 Pseudopotential format is: paw10
 basis_size (lnmax)=  8 (lmn_size= 32), orbitals=   0   0   1   1   2   2   3   3
 Spheres core radius: rc_sph= 2.52170005
 1 radial meshes are used:
  - mesh 1: r(i)=AA*[exp(BB*(i-1))-1], size=1500 , AA= 0.14034E-03 BB= 0.88415E-02
 Shapefunction is SIN type: shapef(r)=[sin(pi*r/rshp)/(pi*r/rshp)]**2
 Radius for shape functions =  2.30830346
 mmax= 1500
 Radial grid used for partial waves is grid 1
 Radial grid used for projectors is grid 1
 Radial grid used for (t)core density is grid 1
 Radial grid used for Vloc is grid 1
 Radial grid used for pseudo valence density is grid 1
 Mesh size for Vloc has been set to 1343 to avoid numerical noise.
 Compensation charge density is not taken into account in XC energy/potential
 pspatm: atomic psp has been read  and splines computed

- pspini: atom type   2  psp file is /gpfs/home/acad/ucl-modl/jbouq/paw-sr-11_pbe_standard_xml/Sr.xml
- pspatm: opening atomic psp file    /gpfs/home/acad/ucl-modl/jbouq/paw-sr-11_pbe_standard_xml/Sr.xml
- pspatm : Reading pseudopotential header in XML form from /gpfs/home/acad/ucl-modl/jbouq/paw-sr-11_pbe_standard_xml/Sr.xml
 Pseudopotential format is: paw10
 basis_size (lnmax)=  6 (lmn_size= 18), orbitals=   0   0   1   1   2   2
 Spheres core radius: rc_sph= 2.20669967
 1 radial meshes are used:
  - mesh 1: r(i)=AA*[exp(BB*(i-1))-1], size=1500 , AA= 0.22443E-03 BB= 0.85283E-02
 Shapefunction is SIN type: shapef(r)=[sin(pi*r/rshp)/(pi*r/rshp)]**2
 Radius for shape functions =  1.81361893
 mmax= 1500
 Radial grid used for partial waves is grid 1
 Radial grid used for projectors is grid 1
 Radial grid used for (t)core density is grid 1
 Radial grid used for Vloc is grid 1
 Radial grid used for pseudo valence density is grid 1
 Mesh size for Vloc has been set to 1337 to avoid numerical noise.
 Compensation charge density is not taken into account in XC energy/potential
 pspatm: atomic psp has been read  and splines computed

- pspini: atom type   3  psp file is /gpfs/home/acad/ucl-modl/jbouq/paw-sr-11_pbe_standard_xml/Li.xml
- pspatm: opening atomic psp file    /gpfs/home/acad/ucl-modl/jbouq/paw-sr-11_pbe_standard_xml/Li.xml
- pspatm : Reading pseudopotential header in XML form from /gpfs/home/acad/ucl-modl/jbouq/paw-sr-11_pbe_standard_xml/Li.xml
 Pseudopotential format is: paw10
 basis_size (lnmax)=  5 (lmn_size=  9), orbitals=   0   0   0   1   1
 Spheres core radius: rc_sph= 1.60264751
 1 radial meshes are used:
  - mesh 1: r(i)=AA*[exp(BB*(i-1))-1], size=2001 , AA= 0.17851E-02 BB= 0.53552E-02
 Shapefunction is BESSEL type: shapef(r,l)=aa(1,l)*jl(q(1,l)*r)+aa(2,l)*jl(q(2,l)*r)
 Radius for shape functions =  1.30023672
 mmax= 2001
 Radial grid used for partial waves is grid 1
 Radial grid used for projectors is grid 1
 Radial grid used for (t)core density is grid 1
 Radial grid used for Vloc is grid 1
 Radial grid used for pseudo valence density is grid 1
 Mesh size for Vloc has been set to 1742 to avoid numerical noise.
 Compensation charge density is not taken into account in XC energy/potential
 pspatm: atomic psp has been read  and splines computed

- pspini: atom type   4  psp file is /gpfs/home/acad/ucl-modl/jbouq/paw-sr-11_pbe_standard_xml/Al.xml
- pspatm: opening atomic psp file    /gpfs/home/acad/ucl-modl/jbouq/paw-sr-11_pbe_standard_xml/Al.xml
- pspatm : Reading pseudopotential header in XML form from /gpfs/home/acad/ucl-modl/jbouq/paw-sr-11_pbe_standard_xml/Al.xml
 Pseudopotential format is: paw10
 basis_size (lnmax)=  4 (lmn_size=  8), orbitals=   0   0   1   1
 Spheres core radius: rc_sph= 1.90363307
 1 radial meshes are used:
  - mesh 1: r(i)=AA*[exp(BB*(i-1))-1], size=2001 , AA= 0.46377E-03 BB= 0.60291E-02
 Shapefunction is SIN type: shapef(r)=[sin(pi*r/rshp)/(pi*r/rshp)]**2
 Radius for shape functions =  1.60786206
 mmax= 2001
 Radial grid used for partial waves is grid 1
 Radial grid used for projectors is grid 1
 Radial grid used for (t)core density is grid 1
 Radial grid used for Vloc is grid 1
 Radial grid used for pseudo valence density is grid 1
 Mesh size for Vloc has been set to 1771 to avoid numerical noise.
 Compensation charge density is not taken into account in XC energy/potential
 pspatm: atomic psp has been read  and splines computed

- pspini: atom type   5  psp file is /gpfs/home/acad/ucl-modl/jbouq/paw-sr-11_pbe_standard_xml/N.xml
- pspatm: opening atomic psp file    /gpfs/home/acad/ucl-modl/jbouq/paw-sr-11_pbe_standard_xml/N.xml
- pspatm : Reading pseudopotential header in XML form from /gpfs/home/acad/ucl-modl/jbouq/paw-sr-11_pbe_standard_xml/N.xml
 Pseudopotential format is: paw10
 basis_size (lnmax)=  4 (lmn_size=  8), orbitals=   0   0   1   1
 Spheres core radius: rc_sph= 1.20000000
 1 radial meshes are used:
  - mesh 1: r(i)=AA*[exp(BB*(i-1))-1], size= 787 , AA= 0.19344E-02 BB= 0.13541E-01
 Shapefunction is SIN type: shapef(r)=[sin(pi*r/rshp)/(pi*r/rshp)]**2
 Radius for shape functions =  1.00599851
 mmax=  787
 Radial grid used for partial waves is grid 1
 Radial grid used for projectors is grid 1
 Radial grid used for (t)core density is grid 1
 Radial grid used for Vloc is grid 1
 Radial grid used for pseudo valence density is grid 1
 Mesh size for Vloc has been set to  683 to avoid numerical noise.
 Compensation charge density is not taken into account in XC energy/potential
 pspatm: atomic psp has been read  and splines computed

- pspini: atom type   6  psp file is /gpfs/home/acad/ucl-modl/jbouq/paw-sr-11_pbe_standard_xml/O.xml
- pspatm: opening atomic psp file    /gpfs/home/acad/ucl-modl/jbouq/paw-sr-11_pbe_standard_xml/O.xml
- pspatm : Reading pseudopotential header in XML form from /gpfs/home/acad/ucl-modl/jbouq/paw-sr-11_pbe_standard_xml/O.xml
 Pseudopotential format is: paw10
 basis_size (lnmax)=  4 (lmn_size=  8), orbitals=   0   0   1   1
 Spheres core radius: rc_sph= 1.41465230
 1 radial meshes are used:
  - mesh 1: r(i)=AA*[exp(BB*(i-1))-1], size=2001 , AA= 0.72565E-03 BB= 0.58052E-02
 Shapefunction is SIN type: shapef(r)=[sin(pi*r/rshp)/(pi*r/rshp)]**2
 Radius for shape functions =  1.20231231
 mmax= 2001
 Radial grid used for partial waves is grid 1
 Radial grid used for projectors is grid 1
 Radial grid used for (t)core density is grid 1
 Radial grid used for Vloc is grid 1
 Radial grid used for pseudo valence density is grid 1
 Mesh size for Vloc has been set to 1762 to avoid numerical noise.
 Compensation charge density is not taken into account in XC energy/potential
 pspatm: atomic psp has been read  and splines computed

   8.49875662E+04                                ecore*ucvol(ha*bohr**3)
--------------------------------------------------------------------------------

_setup2: Arith. and geom. avg. npw (full set) are     101.000     101.000


 ******************************************
 DFT+U Method used: FLL
 ******************************************

================================================================================

--- !BeginCycle
iteration_state: {dtset: 1, }
solver: {iscf: 17, nstep: 300, nline: 4, wfoptalg: 114, }
tolerances: {toldfe: 1.00E-05, }
...

     iter   Etot(hartree)      deltaE(h)  residm     nres2
 ETOT  1  -680.30114861842    -6.803E+02 2.981E-04 9.003E+00
 ETOT  2  -680.46636359593    -1.652E-01 7.379E-06 1.699E+01
 ETOT  3  -680.31171162712     1.547E-01 1.189E-03 2.001E+00
 ETOT  4  -680.31168967914     2.195E-05 4.836E-05 2.950E-01
 ETOT  5  -680.31420585147    -2.516E-03 4.431E-06 9.480E-02
 ETOT  6  -680.31482302410    -6.172E-04 1.348E-06 2.036E-02
 ETOT  7  -680.31489103620    -6.801E-05 8.938E-07 2.882E-03
 ETOT  8  -680.31491640642    -2.537E-05 3.155E-08 1.017E-03
 ETOT  9  -680.31492296824    -6.562E-06 1.787E-08 3.496E-04
 ETOT 10  -680.31492889544    -5.927E-06 3.396E-09 1.184E-04

 At SCF step   10, etot is converged : 
  for the second time, diff in etot=  5.927E-06 < toldfe=  1.000E-05

 Cartesian components of stress tensor (hartree/bohr^3)
  sigma(1 1)=  2.27297382E-03  sigma(3 2)=  0.00000000E+00
  sigma(2 2)=  2.28888480E-03  sigma(3 1)=  0.00000000E+00
  sigma(3 3)=  2.33270654E-03  sigma(2 1)= -6.10722879E-06


--- !ResultsGS
iteration_state: {dtset: 1, }
comment   : Summary of ground state results
lattice_vectors:
- [ 14.8520172,   0.0000729,   0.0000000, ]
- [  0.0000729,  14.8514103,   0.0000000, ]
- [  0.0000000,   0.0000000,  18.0845190, ]
lattice_lengths: [  14.85202,   14.85141,   18.08452, ]
lattice_angles: [ 90.000,  90.000,  89.999, ] # degrees, (23, 13, 12)
lattice_volume:   3.9889639E+03
convergence: {deltae: -5.927E-06, res2:  1.184E-04, residm:  3.396E-09, diffor: null, }
etotal    :  -6.80314929E+02
entropy   :   0.00000000E+00
fermie    :   2.87885550E-01
cartesian_stress_tensor: # hartree/bohr^3
- [  2.27297382E-03,  -6.10722879E-06,   0.00000000E+00, ]
- [ -6.10722879E-06,   2.28888480E-03,   0.00000000E+00, ]
- [  0.00000000E+00,   0.00000000E+00,   2.33270654E-03, ]
pressure_GPa:  -6.7615E+01
xred      :
- [  5.0000E-01,   2.9463E-22,   1.6667E-01, Eu]
- [  5.0000E-01,   2.9463E-22,   5.0003E-01, Sr]
- [  5.0000E-01,   2.9463E-22,   8.3330E-01, Sr]
- [ -5.5511E-17,   5.0000E-01,   1.0523E-05, Sr]
- [ -5.5511E-17,   5.0000E-01,   3.3332E-01, Sr]
- [ -5.5511E-17,   5.0000E-01,   6.6667E-01, Sr]
- [  1.2060E-01,   8.2926E-01,   1.6667E-01, Li]
- [  1.2062E-01,   8.2914E-01,   5.0022E-01, Li]
- [  1.2062E-01,   8.2914E-01,   8.3312E-01, Li]
- [  8.7940E-01,   1.7074E-01,   1.6667E-01, Li]
- [  8.7938E-01,   1.7086E-01,   5.0022E-01, Li]
- [  8.7938E-01,   1.7086E-01,   8.3312E-01, Li]
- [  1.7071E-01,   1.2077E-01,  -1.5432E-05, Li]
- [  1.7071E-01,   1.2077E-01,   3.3335E-01, Li]
- [  1.7079E-01,   1.2082E-01,   6.6667E-01, Li]
- [  8.2929E-01,   8.7923E-01,  -1.5432E-05, Li]
- [  8.2929E-01,   8.7923E-01,   3.3335E-01, Li]
- [  8.2921E-01,   8.7918E-01,   6.6667E-01, Li]
- [  3.4950E-01,   6.8400E-01,   4.5979E-05, Al]
- [  3.4950E-01,   6.8400E-01,   3.3329E-01, Al]
- [  3.4966E-01,   6.8409E-01,   6.6667E-01, Al]
- [  6.5050E-01,   3.1600E-01,   4.5979E-05, Al]
- [  6.5050E-01,   3.1600E-01,   3.3329E-01, Al]
- [  6.5034E-01,   3.1591E-01,   6.6667E-01, Al]
- [  3.1605E-01,   3.4948E-01,   1.6667E-01, Al]
- [  3.1595E-01,   3.4980E-01,   5.0016E-01, Al]
- [  3.1595E-01,   3.4980E-01,   8.3317E-01, Al]
- [  6.8395E-01,   6.5052E-01,   1.6667E-01, Al]
- [  6.8405E-01,   6.5020E-01,   5.0016E-01, Al]
- [  6.8405E-01,   6.5020E-01,   8.3317E-01, Al]
- [  5.8360E-01,   7.3526E-01,  -2.0630E-04,  N]
- [  5.8360E-01,   7.3526E-01,   3.3354E-01,  N]
- [  5.8365E-01,   7.3570E-01,   6.6667E-01,  N]
- [  4.1640E-01,   2.6474E-01,  -2.0630E-04,  N]
- [  4.1640E-01,   2.6474E-01,   3.3354E-01,  N]
- [  4.1635E-01,   2.6430E-01,   6.6667E-01,  N]
- [  2.6422E-01,   5.8357E-01,   1.6667E-01,  N]
- [  2.6426E-01,   5.8375E-01,   5.0003E-01,  N]
- [  2.6426E-01,   5.8375E-01,   8.3330E-01,  N]
- [  7.3578E-01,   4.1643E-01,   1.6667E-01,  N]
- [  7.3574E-01,   4.1625E-01,   5.0003E-01,  N]
- [  7.3574E-01,   4.1625E-01,   8.3330E-01,  N]
- [  2.4659E-01,   8.9026E-01,  -2.6668E-04,  O]
- [  2.4659E-01,   8.9026E-01,   3.3360E-01,  O]
- [  2.4745E-01,   8.9058E-01,   6.6667E-01,  O]
- [  7.5341E-01,   1.0974E-01,  -2.6668E-04,  O]
- [  7.5341E-01,   1.0974E-01,   3.3360E-01,  O]
- [  7.5255E-01,   1.0942E-01,   6.6667E-01,  O]
- [  1.0968E-01,   2.4731E-01,   1.6667E-01,  O]
- [  1.0960E-01,   2.4750E-01,   5.0008E-01,  O]
- [  1.0960E-01,   2.4750E-01,   8.3325E-01,  O]
- [  8.9032E-01,   7.5269E-01,   1.6667E-01,  O]
- [  8.9040E-01,   7.5250E-01,   5.0008E-01,  O]
- [  8.9040E-01,   7.5250E-01,   8.3325E-01,  O]
cartesian_forces: # hartree/bohr
- [ -0.00000000E+00,   4.01556360E-21,   1.60622544E-20, ]
- [ -0.00000000E+00,   4.01556360E-21,   3.51602283E-03, ]
- [ -0.00000000E+00,   4.01556360E-21,  -3.51602283E-03, ]
- [ -0.00000000E+00,   4.01556360E-21,  -5.88463356E-04, ]
- [ -0.00000000E+00,   4.01556360E-21,   5.88463356E-04, ]
- [ -0.00000000E+00,   4.01556360E-21,   1.60622544E-20, ]
- [ -2.35105936E-04,  -1.50603057E-03,   1.60622544E-20, ]
- [  2.59182281E-04,  -4.64016560E-04,   1.30392043E-03, ]
- [  2.59182281E-04,  -4.64016560E-04,  -1.30392043E-03, ]
- [  2.35105936E-04,   1.50603057E-03,   1.60622544E-20, ]
- [ -2.59182281E-04,   4.64016560E-04,   1.30392043E-03, ]
- [ -2.59182281E-04,   4.64016560E-04,  -1.30392043E-03, ]
- [  2.23454166E-04,   8.48154802E-04,  -1.17064254E-03, ]
- [  2.23454166E-04,   8.48154802E-04,   1.17064254E-03, ]
- [  1.52419295E-03,  -3.34606634E-04,   1.60622544E-20, ]
- [ -2.23454166E-04,  -8.48154802E-04,  -1.17064254E-03, ]
- [ -2.23454166E-04,  -8.48154802E-04,   1.17064254E-03, ]
- [ -1.52419295E-03,   3.34606634E-04,   1.60622544E-20, ]
- [ -9.34964276E-04,  -1.33633328E-03,  -3.57845449E-04, ]
- [ -9.34964276E-04,  -1.33633328E-03,   3.57845449E-04, ]
- [  2.11050260E-03,   2.73199632E-03,   1.60622544E-20, ]
- [  9.34964276E-04,   1.33633328E-03,  -3.57845449E-04, ]
- [  9.34964276E-04,   1.33633328E-03,   3.57845449E-04, ]
- [ -2.11050260E-03,  -2.73199632E-03,   1.60622544E-20, ]
- [ -3.41913409E-05,   2.17854363E-03,   1.60622544E-20, ]
- [ -3.07572273E-05,  -2.12847972E-03,   4.27112702E-03, ]
- [ -3.07572273E-05,  -2.12847972E-03,  -4.27112702E-03, ]
- [  3.41913409E-05,  -2.17854363E-03,   1.60622544E-20, ]
- [  3.07572273E-05,   2.12847972E-03,   4.27112702E-03, ]
- [  3.07572273E-05,   2.12847972E-03,  -4.27112702E-03, ]
- [ -3.26380647E-03,   6.24677768E-03,   6.89431503E-03, ]
- [ -3.26380647E-03,   6.24677768E-03,  -6.89431503E-03, ]
- [ -3.97234596E-04,  -3.06879938E-03,   1.60622544E-20, ]
- [  3.26380647E-03,  -6.24677768E-03,   6.89431503E-03, ]
- [  3.26380647E-03,  -6.24677768E-03,  -6.89431503E-03, ]
- [  3.97234596E-04,   3.06879938E-03,   1.60622544E-20, ]
- [ -6.61268438E-04,  -2.09159155E-03,   1.60622544E-20, ]
- [  4.81410814E-04,  -1.98977553E-03,  -3.00735791E-03, ]
- [  4.81410814E-04,  -1.98977553E-03,   3.00735791E-03, ]
- [  6.61268438E-04,   2.09159155E-03,   1.60622544E-20, ]
- [ -4.81410814E-04,   1.98977553E-03,  -3.00735791E-03, ]
- [ -4.81410814E-04,   1.98977553E-03,   3.00735791E-03, ]
- [  2.77385607E-03,   3.29740639E-03,   6.85134330E-03, ]
- [  2.77385607E-03,   3.29740639E-03,  -6.85134330E-03, ]
- [ -4.22249654E-03,  -1.56033757E-03,   1.60622544E-20, ]
- [ -2.77385607E-03,  -3.29740639E-03,   6.85134330E-03, ]
- [ -2.77385607E-03,  -3.29740639E-03,  -6.85134330E-03, ]
- [  4.22249654E-03,   1.56033757E-03,   1.60622544E-20, ]
- [ -1.94822772E-04,  -2.32395634E-03,   1.60622544E-20, ]
- [ -1.49053987E-03,  -9.42197690E-04,  -1.47152016E-03, ]
- [ -1.49053987E-03,  -9.42197690E-04,   1.47152016E-03, ]
- [  1.94822772E-04,   2.32395634E-03,   1.60622544E-20, ]
- [  1.49053987E-03,   9.42197690E-04,  -1.47152016E-03, ]
- [  1.49053987E-03,   9.42197690E-04,   1.47152016E-03, ]
force_length_stats: {min:   1.65565929E-20, max:   9.85932269E-03, mean:   3.38307687E-03, }
...

 Integrated electronic and magnetization densities in atomic spheres:
 ---------------------------------------------------------------------
 Radius=ratsph(iatom), smearing ratsm=  0.0000. Diff(up-dn)=approximate z local magnetic moment.
 Atom    Radius    up_density   dn_density  Total(up+dn)  Diff(up-dn)
    1   2.52170    10.426254     4.042560     14.468814     6.383695
    2   2.20670     3.713232     3.664204      7.377436     0.049028
    3   2.20670     3.713232     3.664204      7.377436     0.049028
    4   2.20670     3.683053     3.675448      7.358501     0.007606
    5   2.20670     3.683053     3.675448      7.358501     0.007606
    6   2.20670     3.681729     3.675544      7.357273     0.006185
    7   1.60265     1.066243     1.065995      2.132238     0.000248
    8   1.60265     1.065267     1.065546      2.130812    -0.000279
    9   1.60265     1.065267     1.065546      2.130812    -0.000279
   10   1.60265     1.066243     1.065995      2.132238     0.000248
   11   1.60265     1.065267     1.065546      2.130812    -0.000279
   12   1.60265     1.065267     1.065546      2.130812    -0.000279
   13   1.60265     1.065872     1.065737      2.131609     0.000135
   14   1.60265     1.065872     1.065737      2.131609     0.000135
   15   1.60265     1.065610     1.065647      2.131256    -0.000037
   16   1.60265     1.065872     1.065737      2.131609     0.000135
   17   1.60265     1.065872     1.065737      2.131609     0.000135
   18   1.60265     1.065610     1.065647      2.131256    -0.000037
   19   1.90363     0.470763     0.468151      0.938914     0.002612
   20   1.90363     0.470763     0.468151      0.938914     0.002612
   21   1.90363     0.470625     0.469217      0.939842     0.001408
   22   1.90363     0.470763     0.468151      0.938914     0.002612
   23   1.90363     0.470763     0.468151      0.938914     0.002612
   24   1.90363     0.470625     0.469217      0.939842     0.001408
   25   1.90363     0.471983     0.469586      0.941569     0.002397
   26   1.90363     0.471024     0.469899      0.940923     0.001126
   27   1.90363     0.471024     0.469899      0.940923     0.001126
   28   1.90363     0.471983     0.469586      0.941569     0.002397
   29   1.90363     0.471024     0.469899      0.940923     0.001126
   30   1.90363     0.471024     0.469899      0.940923     0.001126
   31   1.20000     1.221499     1.235161      2.456660    -0.013663
   32   1.20000     1.221499     1.235161      2.456660    -0.013663
   33   1.20000     1.227226     1.228641      2.455867    -0.001415
   34   1.20000     1.221499     1.235161      2.456660    -0.013663
   35   1.20000     1.221499     1.235161      2.456660    -0.013663
   36   1.20000     1.227226     1.228641      2.455867    -0.001415
   37   1.20000     1.228232     1.228361      2.456593    -0.000129
   38   1.20000     1.226445     1.230099      2.456544    -0.003654
   39   1.20000     1.226445     1.230099      2.456544    -0.003654
   40   1.20000     1.228232     1.228361      2.456593    -0.000129
   41   1.20000     1.226445     1.230099      2.456544    -0.003654
   42   1.20000     1.226445     1.230099      2.456544    -0.003654
   43   1.41465     2.302505     2.316338      4.618843    -0.013832
   44   1.41465     2.302505     2.316338      4.618843    -0.013832
   45   1.41465     2.312309     2.312405      4.624715    -0.000096
   46   1.41465     2.302505     2.316338      4.618843    -0.013832
   47   1.41465     2.302505     2.316338      4.618843    -0.013832
   48   1.41465     2.312309     2.312405      4.624715    -0.000096
   49   1.41465     2.308989     2.308876      4.617865     0.000114
   50   1.41465     2.311025     2.310682      4.621707     0.000343
   51   1.41465     2.311025     2.310682      4.621707     0.000343
   52   1.41465     2.308989     2.308876      4.617865     0.000114
   53   1.41465     2.311025     2.310682      4.621707     0.000343
   54   1.41465     2.311025     2.310682      4.621707     0.000343
 ---------------------------------------------------------------------
  Sum:             89.740590    83.341312    173.081902     6.399278
 Total magnetization (from the atomic spheres):             6.399278
 Total magnetization (exact up - dn):                       6.999944

 PAW TEST:
 ==== Compensation charge inside spheres ============
 The following values must be close to each other ...
 Compensation charge over spherical meshes =     20.732009428851235
 Compensation charge over fine fft grid    =     20.731764538708696

 ==== Results concerning PAW augmentation regions ====

 Total pseudopotential strength Dij (hartree):
 Atom #  1 - Spin component 1
  -0.68713  -0.08645   0.00000   0.00000   0.00000   0.00000   0.00000   0.00000   0.00004   0.00000   0.00001   0.00000 ...
  -0.08645  -0.09120   0.00000   0.00000   0.00000   0.00000   0.00000   0.00000   0.00002   0.00000   0.00014   0.00000 ...
   0.00000   0.00000  -0.74979   0.00000   0.00022   0.20709   0.00000  -0.00040   0.00000   0.00000   0.00000   0.00000 ...
   0.00000   0.00000   0.00000  -0.74871   0.00000   0.00000   0.20496   0.00000   0.00000   0.00000   0.00000   0.00000 ...
   0.00000   0.00000   0.00022   0.00000  -0.75002  -0.00040   0.00000   0.20752   0.00000   0.00000   0.00000   0.00000 ...
   0.00000   0.00000   0.20709   0.00000  -0.00040   0.82317   0.00000   0.00036   0.00000   0.00000   0.00000   0.00000 ...
   0.00000   0.00000   0.00000   0.20496   0.00000   0.00000   0.82506   0.00000   0.00000   0.00000   0.00000   0.00000 ...
   0.00000   0.00000  -0.00040   0.00000   0.20752   0.00036   0.00000   0.82278   0.00000   0.00000   0.00000   0.00000 ...
   0.00004   0.00002   0.00000   0.00000   0.00000   0.00000   0.00000   0.00000  -0.19492   0.00000  -0.00006   0.00000 ...
   0.00000   0.00000   0.00000   0.00000   0.00000   0.00000   0.00000   0.00000   0.00000  -0.19499   0.00000   0.00001 ...
   0.00001   0.00014   0.00000   0.00000   0.00000   0.00000   0.00000   0.00000  -0.00006   0.00000  -0.19436   0.00000 ...
   0.00000   0.00000   0.00000   0.00000   0.00000   0.00000   0.00000   0.00000   0.00000   0.00001   0.00000  -0.19499 ...
   ...  only 12  components have been written...
 Atom #  1 - Spin component 2
  -0.61730  -0.07870   0.00000   0.00000   0.00000   0.00000   0.00000   0.00000   0.00009   0.00000  -0.00023   0.00000 ...
  -0.07870  -0.09051   0.00000   0.00000   0.00000   0.00000   0.00000   0.00000   0.00003   0.00000   0.00003   0.00000 ...
   0.00000   0.00000  -0.69189   0.00000   0.00037   0.14363   0.00000  -0.00067   0.00000   0.00000   0.00000   0.00000 ...
   0.00000   0.00000   0.00000  -0.69050   0.00000   0.00000   0.14003   0.00000   0.00000   0.00000   0.00000   0.00000 ...
   0.00000   0.00000   0.00037   0.00000  -0.69182  -0.00067   0.00000   0.14438   0.00000   0.00000   0.00000   0.00000 ...
   0.00000   0.00000   0.14363   0.00000  -0.00067   0.88682   0.00000   0.00051   0.00000   0.00000   0.00000   0.00000 ...
   0.00000   0.00000   0.00000   0.14003   0.00000   0.00000   0.88864   0.00000   0.00000   0.00000   0.00000   0.00000 ...
   0.00000   0.00000  -0.00067   0.00000   0.14438   0.00051   0.00000   0.88678   0.00000   0.00000   0.00000   0.00000 ...
   0.00009   0.00003   0.00000   0.00000   0.00000   0.00000   0.00000   0.00000  -0.18191   0.00000  -0.00005   0.00000 ...
   0.00000   0.00000   0.00000   0.00000   0.00000   0.00000   0.00000   0.00000   0.00000  -0.18290   0.00000   0.00005 ...
  -0.00023   0.00003   0.00000   0.00000   0.00000   0.00000   0.00000   0.00000  -0.00005   0.00000  -0.18089   0.00000 ...
   0.00000   0.00000   0.00000   0.00000   0.00000   0.00000   0.00000   0.00000   0.00000   0.00005   0.00000  -0.18281 ...
   ...  only 12  components have been written...
 Atom # 54 - Spin component 1
   0.61833  -1.77189   0.00029  -0.00001   0.00063  -0.00202   0.00009  -0.00444
  -1.77189   5.13924  -0.00077   0.00004  -0.00169   0.00549  -0.00025   0.01203
   0.00029  -0.00077  -0.30627  -0.00000  -0.00031   0.95371   0.00002   0.00164
  -0.00001   0.00004  -0.00000  -0.30601   0.00001   0.00002   0.95230  -0.00003
   0.00063  -0.00169  -0.00031   0.00001  -0.30668   0.00164  -0.00003   0.95577
  -0.00202   0.00549   0.95371   0.00002   0.00164  -0.22200  -0.00009  -0.00818
   0.00009  -0.00025   0.00002   0.95230  -0.00003  -0.00009  -0.21457   0.00015
  -0.00444   0.01203   0.00164  -0.00003   0.95577  -0.00818   0.00015  -0.23201
 Atom # 54 - Spin component 2
   0.61833  -1.77187   0.00029  -0.00001   0.00062  -0.00202   0.00009  -0.00441
  -1.77187   5.13917  -0.00077   0.00004  -0.00167   0.00548  -0.00026   0.01194
   0.00029  -0.00077  -0.30628  -0.00000  -0.00030   0.95376   0.00002   0.00156
  -0.00001   0.00004  -0.00000  -0.30601   0.00000   0.00002   0.95227  -0.00003
   0.00062  -0.00167  -0.00030   0.00000  -0.30665   0.00156  -0.00003   0.95560
  -0.00202   0.00548   0.95376   0.00002   0.00156  -0.22226  -0.00011  -0.00781
   0.00009  -0.00026   0.00002   0.95227  -0.00003  -0.00011  -0.21446   0.00014
  -0.00441   0.01194   0.00156  -0.00003   0.95560  -0.00781   0.00014  -0.23116


 Augmentation waves occupancies Rhoij:
 Atom #  1 - Spin component 1
   1.04633  -0.10994   0.00000   0.00000   0.00000   0.00000   0.00000   0.00000   0.00206   0.00000  -0.01979   0.00000 ...
  -0.10994   0.16094   0.00000   0.00000   0.00000   0.00000   0.00000   0.00000  -0.00717   0.00000   0.03623   0.00000 ...
   0.00000   0.00000   1.00853   0.00000  -0.00017  -0.00907   0.00000   0.00025   0.00000   0.00000   0.00000   0.00000 ...
   0.00000   0.00000   0.00000   1.00579   0.00000   0.00000  -0.00693   0.00000   0.00000   0.00000   0.00000   0.00000 ...
   0.00000   0.00000  -0.00017   0.00000   1.00772   0.00024   0.00000  -0.00793   0.00000   0.00000   0.00000   0.00000 ...
   0.00000   0.00000  -0.00907   0.00000   0.00024   0.00630   0.00000  -0.00020   0.00000   0.00000   0.00000   0.00000 ...
   0.00000   0.00000   0.00000  -0.00693   0.00000   0.00000   0.00540   0.00000   0.00000   0.00000   0.00000   0.00000 ...
   0.00000   0.00000   0.00025   0.00000  -0.00793  -0.00020   0.00000   0.00478   0.00000   0.00000   0.00000   0.00000 ...
   0.00206  -0.00717   0.00000   0.00000   0.00000   0.00000   0.00000   0.00000   0.05711   0.00000  -0.03558   0.00000 ...
   0.00000   0.00000   0.00000   0.00000   0.00000   0.00000   0.00000   0.00000   0.00000   0.09931   0.00000  -0.00894 ...
  -0.01979   0.03623   0.00000   0.00000   0.00000   0.00000   0.00000   0.00000  -0.03558   0.00000   0.54449   0.00000 ...
   0.00000   0.00000   0.00000   0.00000   0.00000   0.00000   0.00000   0.00000   0.00000  -0.00894   0.00000   0.07593 ...
   ...  only 12  components have been written...
 Atom #  1 - Spin component 2
   0.98726   0.02154   0.00000   0.00000   0.00000   0.00000   0.00000   0.00000  -0.00023   0.00000  -0.00837   0.00000 ...
   0.02154   0.11756   0.00000   0.00000   0.00000   0.00000   0.00000   0.00000  -0.00369   0.00000  -0.00042   0.00000 ...
   0.00000   0.00000   1.00102   0.00000  -0.00008   0.01094   0.00000   0.00010   0.00000   0.00000   0.00000   0.00000 ...
   0.00000   0.00000   0.00000   0.99930   0.00000   0.00000   0.01104   0.00000   0.00000   0.00000   0.00000   0.00000 ...
   0.00000   0.00000  -0.00008   0.00000   0.99970   0.00010   0.00000   0.01281   0.00000   0.00000   0.00000   0.00000 ...
   0.00000   0.00000   0.01094   0.00000   0.00010   0.00519   0.00000  -0.00016   0.00000   0.00000   0.00000   0.00000 ...
   0.00000   0.00000   0.00000   0.01104   0.00000   0.00000   0.00437   0.00000   0.00000   0.00000   0.00000   0.00000 ...
   0.00000   0.00000   0.00010   0.00000   0.01281  -0.00016   0.00000   0.00405   0.00000   0.00000   0.00000   0.00000 ...
  -0.00023  -0.00369   0.00000   0.00000   0.00000   0.00000   0.00000   0.00000   0.03704   0.00000  -0.00055   0.00000 ...
   0.00000   0.00000   0.00000   0.00000   0.00000   0.00000   0.00000   0.00000   0.00000   0.07102   0.00000  -0.00580 ...
  -0.00837  -0.00042   0.00000   0.00000   0.00000   0.00000   0.00000   0.00000  -0.00055   0.00000   0.01357   0.00000 ...
   0.00000   0.00000   0.00000   0.00000   0.00000   0.00000   0.00000   0.00000   0.00000  -0.00580   0.00000   0.05360 ...
   ...  only 12  components have been written...
 Atom # 54 - Spin component 1
   1.00411   0.01604   0.00050  -0.00060  -0.00253  -0.00047  -0.00002  -0.00128
   0.01604   0.00043  -0.00201   0.00011  -0.00509  -0.00013   0.00000  -0.00029
   0.00050  -0.00201   1.08757  -0.00027   0.01025   0.04935   0.00001   0.00161
  -0.00060   0.00011  -0.00027   1.10992   0.00045  -0.00000   0.05002   0.00000
  -0.00253  -0.00509   0.01025   0.00045   1.12230   0.00154   0.00000   0.05243
  -0.00047  -0.00013   0.04935  -0.00000   0.00154   0.00226   0.00000   0.00013
  -0.00002   0.00000   0.00001   0.05002   0.00000   0.00000   0.00227  -0.00000
  -0.00128  -0.00029   0.00161   0.00000   0.05243   0.00013  -0.00000   0.00248
 Atom # 54 - Spin component 2
   1.00405   0.01606   0.00055  -0.00055  -0.00214  -0.00047  -0.00002  -0.00128
   0.01606   0.00043  -0.00202   0.00011  -0.00519  -0.00013   0.00000  -0.00029
   0.00055  -0.00202   1.08871  -0.00025   0.00937   0.04939   0.00000   0.00159
  -0.00055   0.00011  -0.00025   1.11012   0.00044  -0.00000   0.05004  -0.00000
  -0.00214  -0.00519   0.00937   0.00044   1.12084   0.00152   0.00000   0.05242
  -0.00047  -0.00013   0.04939  -0.00000   0.00152   0.00226   0.00000   0.00013
  -0.00002   0.00000   0.00000   0.05004   0.00000   0.00000   0.00228  -0.00000
  -0.00128  -0.00029   0.00159  -0.00000   0.05242   0.00013  -0.00000   0.00248

 "PAW+U" part of augmentation waves occupancies Rhoij:
 Atom #  1 - L=3 ONLY - Spin component 1
   1.00405   0.00000   0.00013   0.00000   0.00487   0.00000   0.00024   0.00313   0.00000  -0.00000   0.00000   0.00184   0.00000   0.00001
   0.00000   0.63103   0.00000  -0.00738   0.00000  -0.39450   0.00000   0.00000   0.01535   0.00000   0.00113   0.00000   0.01707   0.00000
   0.00013   0.00000   1.00427   0.00000  -0.00024   0.00000   0.00439   0.00005   0.00000   0.00389   0.00000  -0.00010   0.00000   0.00162
   0.00000  -0.00738   0.00000   1.01471   0.00000  -0.00505   0.00000   0.00000  -0.00000   0.00000   0.00672   0.00000   0.00172   0.00000
   0.00487   0.00000  -0.00024   0.00000   1.00168   0.00000   0.00312   0.00185   0.00000  -0.00013   0.00000   0.00229   0.00000   0.00108
   0.00000  -0.39450   0.00000  -0.00505   0.00000   0.56158   0.00000   0.00000   0.01753   0.00000   0.00293   0.00000   0.01785   0.00000
   0.00024   0.00000   0.00439   0.00000   0.00312   0.00000   1.00644  -0.00001   0.00000   0.00161   0.00000   0.00107   0.00000   0.00401
   0.00313   0.00000   0.00005   0.00000   0.00185   0.00000  -0.00001   0.00298   0.00000  -0.00003   0.00000   0.00031   0.00000  -0.00016
   0.00000   0.01535   0.00000  -0.00000   0.00000   0.01753   0.00000   0.00000   0.00436   0.00000  -0.00017   0.00000   0.00192   0.00000
  -0.00000   0.00000   0.00389   0.00000  -0.00013   0.00000   0.00161  -0.00003   0.00000   0.00366   0.00000  -0.00002   0.00000   0.00026
   0.00000   0.00113   0.00000   0.00672   0.00000   0.00293   0.00000   0.00000  -0.00017   0.00000   0.00283   0.00000   0.00071   0.00000
   0.00184   0.00000  -0.00010   0.00000   0.00229   0.00000   0.00107   0.00031   0.00000  -0.00002   0.00000   0.00285   0.00000   0.00000
   0.00000   0.01707   0.00000   0.00172   0.00000   0.01785   0.00000   0.00000   0.00192   0.00000   0.00071   0.00000   0.00502   0.00000
   0.00001   0.00000   0.00162   0.00000   0.00108   0.00000   0.00401  -0.00016   0.00000   0.00026   0.00000   0.00000   0.00000   0.00295
 Atom #  1 - L=3 ONLY - Spin component 2
   0.01484   0.00000  -0.00051   0.00000   0.00241   0.00000  -0.00063   0.00581   0.00000  -0.00017   0.00000   0.00086   0.00000  -0.00026
   0.00000   0.03424   0.00000   0.00047   0.00000   0.02391   0.00000   0.00000   0.01220   0.00000   0.00008   0.00000   0.00794   0.00000
  -0.00051   0.00000   0.01770   0.00000  -0.00043   0.00000   0.00241  -0.00018   0.00000   0.00689   0.00000  -0.00010   0.00000   0.00080
   0.00000   0.00047   0.00000   0.01418   0.00000   0.00457   0.00000   0.00000   0.00001   0.00000   0.00569   0.00000   0.00168   0.00000
   0.00241   0.00000  -0.00043   0.00000   0.01352   0.00000  -0.00038   0.00085   0.00000  -0.00011   0.00000   0.00530   0.00000  -0.00008
   0.00000   0.02391   0.00000   0.00457   0.00000   0.03980   0.00000   0.00000   0.00797   0.00000   0.00179   0.00000   0.01419   0.00000
  -0.00063   0.00000   0.00241   0.00000  -0.00038   0.00000   0.01428  -0.00028   0.00000   0.00080   0.00000  -0.00010   0.00000   0.00566
   0.00581   0.00000  -0.00018   0.00000   0.00085   0.00000  -0.00028   0.00229   0.00000  -0.00006   0.00000   0.00031   0.00000  -0.00012
   0.00000   0.01220   0.00000   0.00001   0.00000   0.00797   0.00000   0.00000   0.00440   0.00000  -0.00003   0.00000   0.00267   0.00000
  -0.00017   0.00000   0.00689   0.00000  -0.00011   0.00000   0.00080  -0.00006   0.00000   0.00269   0.00000  -0.00002   0.00000   0.00026
   0.00000   0.00008   0.00000   0.00569   0.00000   0.00179   0.00000   0.00000  -0.00003   0.00000   0.00230   0.00000   0.00067   0.00000
   0.00086   0.00000  -0.00010   0.00000   0.00530   0.00000  -0.00010   0.00031   0.00000  -0.00002   0.00000   0.00208   0.00000  -0.00001
   0.00000   0.00794   0.00000   0.00168   0.00000   0.01419   0.00000   0.00000   0.00267   0.00000   0.00067   0.00000   0.00513   0.00000
  -0.00026   0.00000   0.00080   0.00000  -0.00008   0.00000   0.00566  -0.00012   0.00000   0.00026   0.00000  -0.00001   0.00000   0.00225

 ---------- DFT+U DATA --------------------------------------------------- 

 ====== For Atom     1, occupations for correlated orbitals. lpawu =   3

 Atom   1. Occ. for lpawu and for spin  1 =   6.04849
 Atom   1. Occ. for lpawu and for spin  2 =   0.03224
 => On atom   1,  local Mag. for lpawu is       -6.016247

 == Occupation matrix for correlated orbitals:

 Occupation matrix for spin  1
     0.99044    0.00000   -0.00004    0.00000   -0.00022    0.00000   -0.00027
     0.00000    0.58666    0.00000   -0.00969    0.00000   -0.43981    0.00000
    -0.00004    0.00000    0.99036    0.00000    0.00008    0.00000   -0.00013
     0.00000   -0.00969    0.00000    0.98871    0.00000   -0.01030    0.00000
    -0.00022    0.00000    0.00008    0.00000    0.99042    0.00000   -0.00044
     0.00000   -0.43981    0.00000   -0.01030    0.00000    0.51209    0.00000
    -0.00027    0.00000   -0.00013    0.00000   -0.00044    0.00000    0.98981


 Occupation matrix for spin  2
     0.00298    0.00000   -0.00012    0.00000    0.00056    0.00000   -0.00011
     0.00000    0.00803    0.00000    0.00021    0.00000    0.00614    0.00000
    -0.00012    0.00000    0.00359    0.00000   -0.00014    0.00000    0.00060
     0.00000    0.00021    0.00000    0.00278    0.00000    0.00098    0.00000
     0.00056    0.00000   -0.00014    0.00000    0.00271    0.00000   -0.00012
     0.00000    0.00614    0.00000    0.00098    0.00000    0.00933    0.00000
    -0.00011    0.00000    0.00060    0.00000   -0.00012    0.00000    0.00282



================================================================================

 ----iterations are completed or convergence reached----

 Mean square residual over all n,k,spin=   45.624E-12; max=  33.956E-10
 reduced coordinates (array xred) for   54 atoms
       0.500000000000      0.000000000000      0.166666666700
       0.500000000000      0.000000000000      0.500031453000
       0.500000000000      0.000000000000      0.833301880400
      -0.000000000000      0.500000000000      0.000010522700
      -0.000000000000      0.500000000000      0.333322810700
      -0.000000000000      0.500000000000      0.666666666700
       0.120599385800      0.829259567600      0.166666666700
       0.120618884850      0.829135062100      0.500216178400
       0.120618884850      0.829135062100      0.833117155000
       0.879400614200      0.170740432400      0.166666666700
       0.879381115150      0.170864937900      0.500216178400
       0.879381115150      0.170864937900      0.833117155000
       0.170705320400      0.120773832100     -0.000015432305
       0.170705320400      0.120773832100      0.333348765705
       0.170794670600      0.120822423600      0.666666666700
       0.829294679600      0.879226167900     -0.000015432305
       0.829294679600      0.879226167900      0.333348765705
       0.829205329400      0.879177576400      0.666666666700
       0.349502424200      0.683997292900      0.000045978910
       0.349502424200      0.683997292900      0.333287354490
       0.349659236700      0.684091287500      0.666666666700
       0.650497575800      0.316002707100      0.000045978910
       0.650497575800      0.316002707100      0.333287354490
       0.650340763300      0.315908712500      0.666666666700
       0.316052822200      0.349480892700      0.166666666700
       0.315945938600      0.349795468100      0.500158885800
       0.315945938600      0.349795468100      0.833174447600
       0.683947177800      0.650519107300      0.166666666700
       0.684054061400      0.650204531900      0.500158885800
       0.684054061400      0.650204531900      0.833174447600
       0.583602447400      0.735261415500     -0.000206298280
       0.583602447400      0.735261415500      0.333539631680
       0.583650138800      0.735699213400      0.666666666700
       0.416397552600      0.264738584500     -0.000206298280
       0.416397552600      0.264738584500      0.333539631680
       0.416349861200      0.264300786600      0.666666666700
       0.264216908700      0.583565646500      0.166666666700
       0.264255177900      0.583754046500      0.500032980800
       0.264255177900      0.583754046500      0.833300352600
       0.735783091300      0.416434353500      0.166666666700
       0.735744822100      0.416245953500      0.500032980800
       0.735744822100      0.416245953500      0.833300352600
       0.246590162100      0.890256632800     -0.000266676993
       0.246590162100      0.890256632800      0.333600010393
       0.247452074600      0.890580106100      0.666666666700
       0.753409837900      0.109743367200     -0.000266676993
       0.753409837900      0.109743367200      0.333600010393
       0.752547925400      0.109419893900      0.666666666700
       0.109680360200      0.247305994300      0.166666666700
       0.109596644900      0.247496700000      0.500082903200
       0.109596644900      0.247496700000      0.833250430200
       0.890319639800      0.752694005700      0.166666666700
       0.890403355100      0.752503300000      0.500082903200
       0.890403355100      0.752503300000      0.833250430200
 rms dE/dt=  4.1252E-02; max dE/dt=  1.2468E-01; dE/dt below (all hartree)
    1       0.000000000000      0.000000000000      0.000000000000
    2       0.000000000000      0.000000000000     -0.063585581729
    3       0.000000000000      0.000000000000      0.063585581729
    4       0.000000000000      0.000000000000      0.010642076764
    5       0.000000000000      0.000000000000     -0.010642076764
    6       0.000000000000      0.000000000000      0.000000000000
    7       0.003491907159      0.022366695011      0.000000000000
    8      -0.003849345871      0.006891281439     -0.023580773886
    9      -0.003849345871      0.006891281439      0.023580773886
   10      -0.003491907159     -0.022366695011      0.000000000000
   11       0.003849345871     -0.006891281439     -0.023580773886
   12       0.003849345871     -0.006891281439      0.023580773886
   13      -0.003318806928     -0.012596311250      0.021170507326
   14      -0.003318806928     -0.012596311250     -0.021170507326
   15      -0.022637315451      0.004969269326      0.000000000000
   16       0.003318806928      0.012596311250      0.021170507326
   17       0.003318806928      0.012596311250     -0.021170507326
   18       0.022637315451     -0.004969269326      0.000000000000
   19       0.013886202876      0.019846502037      0.006471462832
   20       0.013886202876      0.019846502037     -0.006471462832
   21      -0.031345419967     -0.040574152160      0.000000000000
   22      -0.013886202876     -0.019846502037      0.006471462832
   23      -0.013886202876     -0.019846502037     -0.006471462832
   24       0.031345419967      0.040574152160      0.000000000000
   25       0.000507651612     -0.032354442814      0.000000000000
   26       0.000456961990      0.031610927872     -0.077241277936
   27       0.000456961990      0.031610927872      0.077241277936
   28      -0.000507651612      0.032354442814      0.000000000000
   29      -0.000456961990     -0.031610927872     -0.077241277936
   30      -0.000456961990     -0.031610927872      0.077241277936
   31       0.048473654543     -0.092773220538     -0.124680371422
   32       0.048473654543     -0.092773220538      0.124680371422
   33       0.005899958686      0.045576027726      0.000000000000
   34      -0.048473654543      0.092773220538     -0.124680371422
   35      -0.048473654543      0.092773220538      0.124680371422
   36      -0.005899958686     -0.045576027726      0.000000000000
   37       0.009821322633      0.031063132438      0.000000000000
   38      -0.007149776655      0.029550937737      0.054386621415
   39      -0.007149776655      0.029550937737     -0.054386621415
   40      -0.009821322633     -0.031063132438      0.000000000000
   41       0.007149776655     -0.029550937737      0.054386621415
   42       0.007149776655     -0.029550937737     -0.054386621415
   43      -0.041197598339     -0.048971337453     -0.123903248318
   44      -0.041197598339     -0.048971337453      0.123903248318
   45       0.062712704835      0.023173521207      0.000000000000
   46       0.041197598339      0.048971337453     -0.123903248318
   47       0.041197598339      0.048971337453      0.123903248318
   48      -0.062712704835     -0.023173521207      0.000000000000
   49       0.002893680522      0.034514043412      0.000000000000
   50       0.022137592439      0.013993073115      0.026611734254
   51       0.022137592439      0.013993073115     -0.026611734254
   52      -0.002893680522     -0.034514043412      0.000000000000
   53      -0.022137592439     -0.013993073115      0.026611734254
   54      -0.022137592439     -0.013993073115     -0.026611734254

 cartesian coordinates (angstrom) at end:
    1      3.92967449394922     0.00001928297144     1.59498588366008
    2      3.92967449394922     0.00001928297144     4.78525865256918
    3      3.92967449394922     0.00001928297144     7.97462841479747
    4      0.00001928297144     3.92951392597340     0.00010070134324
    5      0.00001928297144     3.92951392597340     3.18987106597692
    6      0.00001928297144     3.92951392597340     6.37994353368332
    7      0.94786464190552     6.51717868929079     1.59498588366008
    8      0.94801788694273     6.51620019785057     4.78702645900094
    9      0.94801788694273     6.51620019785057     7.97286060836570
   10      6.91152291193579     1.34188772859890     1.59498588366008
   11      6.91136966689858     1.34286622003912     4.78702645900094
   12      6.91136966689858     1.34286622003912     7.97286060836570
   13      1.34163734487133     0.94917149367188    -0.00014768584789
   14      1.34163734487133     0.94917149367188     3.19011945316804
   15      1.34233958114924     0.94955337906963     6.37994353368332
   16      6.51775020896999     6.90989492421781    -0.00014768584789
   17      6.51775020896999     6.90989492421781     3.19011945316804
   18      6.51704797269207     6.90951303882006     6.37994353368332
   19      2.74688790290485     5.37556725444785     0.00044001427669
   20      2.74688790290485     5.37556725444785     3.18953175304347
   21      2.74812035069300     5.37630596667480     6.37994353368332
   22      5.11249965093647     2.48349916344184     0.00044001427669
   23      5.11249965093647     2.48349916344184     3.18953175304347
   24      5.11126720314831     2.48276045121489     6.37994353368332
   25      2.48398290634016     2.74659225832762     1.59498588366008
   26      2.48314288295857     2.74906451103569     4.78647817367162
   27      2.48314288295857     2.74906451103569     7.97340889369502
   28      5.37540464750116     5.11247415956207     1.59498588366008
   29      5.37624467088274     5.11000190685400     4.78647817367162
   30      5.37624467088274     5.11000190685400     7.97340889369502
   31      4.58676366035799     5.77846245005499    -0.00197425706820
   32      4.58676366035799     5.77846245005499     3.19194602438836
   33      4.58713850059840     5.78190311778387     6.37994353368332
   34      3.27262389348332     2.08060396783470    -0.00197425706820
   35      3.27262389348332     2.08060396783470     3.19194602438836
   36      3.27224905324291     2.07716330010582     6.37994353368332
   37      2.07659539973639     4.58626885905705     1.59498588366008
   38      2.07689617800050     4.58774950138025     4.78527327348577
   39      2.07689617800050     4.58774950138025     7.97461379388087
   40      5.78279215410493     3.27279755883264     1.59498588366008
   41      5.78249137584082     3.27131691650944     4.78527327348577
   42      5.78249137584082     3.27131691650944     7.97461379388087
   43      1.93807247451280     6.99656118253769    -0.00255207623175
   44      1.93807247451280     6.99656118253769     3.19252384355191
   45      1.94484655812238     6.99910340145222     6.37994353368332
   46      5.92131507932852     0.86250523535200    -0.00255207623175
   47      5.92131507932852     0.86250523535200     3.19252384355191
   48      5.91454099571893     0.85996301643747     6.37994353368332
   49      0.86202576551906     1.94358892708360     1.59498588366008
   50      0.86136782511547     1.94508768526287     4.78575102662535
   51      0.86136782511547     1.94508768526287     7.97413604074130
   52      6.99736178832226     5.91547749080608     1.59498588366008
   53      6.99801972872584     5.91397873262682     4.78575102662535
   54      6.99801972872584     5.91397873262682     7.97413604074130

 cartesian forces (hartree/bohr) at end:
    1     -0.00000000000000    -0.00000000000000    -0.00000000000000
    2     -0.00000000000000    -0.00000000000000     0.00351602282685
    3     -0.00000000000000    -0.00000000000000    -0.00351602282685
    4     -0.00000000000000    -0.00000000000000    -0.00058846335614
    5     -0.00000000000000    -0.00000000000000     0.00058846335614
    6     -0.00000000000000    -0.00000000000000    -0.00000000000000
    7     -0.00023510593615    -0.00150603056601    -0.00000000000000
    8      0.00025918228102    -0.00046401656027     0.00130392043296
    9      0.00025918228102    -0.00046401656027    -0.00130392043296
   10      0.00023510593615     0.00150603056601    -0.00000000000000
   11     -0.00025918228102     0.00046401656027     0.00130392043296
   12     -0.00025918228102     0.00046401656027    -0.00130392043296
   13      0.00022345416635     0.00084815480154    -0.00117064254175
   14      0.00022345416635     0.00084815480154     0.00117064254175
   15      0.00152419294817    -0.00033460663358    -0.00000000000000
   16     -0.00022345416635    -0.00084815480154    -0.00117064254175
   17     -0.00022345416635    -0.00084815480154     0.00117064254175
   18     -0.00152419294817     0.00033460663358    -0.00000000000000
   19     -0.00093496427630    -0.00133633328298    -0.00035784544894
   20     -0.00093496427630    -0.00133633328298     0.00035784544894
   21      0.00211050260066     0.00273199632215    -0.00000000000000
   22      0.00093496427630     0.00133633328298    -0.00035784544894
   23      0.00093496427630     0.00133633328298     0.00035784544894
   24     -0.00211050260066    -0.00273199632215    -0.00000000000000
   25     -0.00003419134091     0.00217854362844    -0.00000000000000
   26     -0.00003075722731    -0.00212847971802     0.00427112702304
   27     -0.00003075722731    -0.00212847971802    -0.00427112702304
   28      0.00003419134091    -0.00217854362844    -0.00000000000000
   29      0.00003075722731     0.00212847971802     0.00427112702304
   30      0.00003075722731     0.00212847971802    -0.00427112702304
   31     -0.00326380647478     0.00624677767694     0.00689431503271
   32     -0.00326380647478     0.00624677767694    -0.00689431503271
   33     -0.00039723459561    -0.00306879938146    -0.00000000000000
   34      0.00326380647478    -0.00624677767694     0.00689431503271
   35      0.00326380647478    -0.00624677767694    -0.00689431503271
   36      0.00039723459561     0.00306879938146    -0.00000000000000
   37     -0.00066126843834    -0.00209159154549    -0.00000000000000
   38      0.00048141081352    -0.00198977552991    -0.00300735791309
   39      0.00048141081352    -0.00198977552991     0.00300735791309
   40      0.00066126843834     0.00209159154549    -0.00000000000000
   41     -0.00048141081352     0.00198977552991    -0.00300735791309
   42     -0.00048141081352     0.00198977552991     0.00300735791309
   43      0.00277385607329     0.00329740639250     0.00685134330079
   44      0.00277385607329     0.00329740639250    -0.00685134330079
   45     -0.00422249654050    -0.00156033756999    -0.00000000000000
   46     -0.00277385607329    -0.00329740639250     0.00685134330079
   47     -0.00277385607329    -0.00329740639250    -0.00685134330079
   48      0.00422249654050     0.00156033756999    -0.00000000000000
   49     -0.00019482277195    -0.00232395634430    -0.00000000000000
   50     -0.00149053987209    -0.00094219768984    -0.00147152015525
   51     -0.00149053987209    -0.00094219768984     0.00147152015525
   52      0.00019482277195     0.00232395634430    -0.00000000000000
   53      0.00149053987209     0.00094219768984    -0.00147152015525
   54      0.00149053987209     0.00094219768984     0.00147152015525
 frms,max,avg= 2.4746614E-03 6.8943150E-03   0.000E+00  0.000E+00  0.000E+00 h/b

 cartesian forces (eV/Angstrom) at end:
    1     -0.00000000000000    -0.00000000000000    -0.00000000000000
    2     -0.00000000000000    -0.00000000000000     0.18080114798770
    3     -0.00000000000000    -0.00000000000000    -0.18080114798770
    4     -0.00000000000000    -0.00000000000000    -0.03025999988597
    5     -0.00000000000000    -0.00000000000000     0.03025999988597
    6     -0.00000000000000    -0.00000000000000    -0.00000000000000
    7     -0.01208963230540    -0.07744319893490    -0.00000000000000
    8      0.01332768763312    -0.02386068888435     0.06705027890153
    9      0.01332768763312    -0.02386068888435    -0.06705027890153
   10      0.01208963230540     0.07744319893490    -0.00000000000000
   11     -0.01332768763312     0.02386068888435     0.06705027890153
   12     -0.01332768763312     0.02386068888435    -0.06705027890153
   13      0.01149047426265     0.04361386980144    -0.06019685475715
   14      0.01149047426265     0.04361386980144     0.06019685475715
[...]
                       0.0000000000E+00  0.0000000000E+00  0.0000000000E+00
                       0.0000000000E+00  0.0000000000E+00  0.0000000000E+00
                       0.0000000000E+00  0.0000000000E+00  0.0000000000E+00
                       0.0000000000E+00  0.0000000000E+00  0.0000000000E+00
                       0.0000000000E+00  0.0000000000E+00  0.0000000000E+00
                       0.0000000000E+00  0.0000000000E+00  0.0000000000E+00
           strten      2.2729738187E-03  2.2888847972E-03  2.3327065366E-03
                       0.0000000000E+00  0.0000000000E+00 -6.1072287946E-06
           symrel      1  0  0   0  1  0   0  0  1      -1  0  0   0 -1  0   0  0 -1
                      -1  0  0   0 -1  0   0  0  1       1  0  0   0  1  0   0  0 -1
            tnons      0.0000000  0.0000000  0.0000000    -0.0000000  0.0000000  0.3333333
                      -0.0000000  0.0000000  0.0000000     0.0000000  0.0000000  0.3333333
           toldfe      1.00000000E-05 Hartree
            typat      1  2  2  2  2  2  3  3  3  3  3  3  3  3  3  3  3  3  4  4
                       4  4  4  4  4  4  4  4  4  4  5  5  5  5  5  5  5  5  5  5
                       5  5  6  6  6  6  6  6  6  6  6  6  6  6
            upawu      2.57245278E-01  0.00000000E+00  0.00000000E+00  0.00000000E+00  0.00000000E+00  0.00000000E+00 Hartree
          usepawu           1
           useylm           1
         wfoptalg         114
           xangst      3.9296744939E+00  1.9282971442E-05  1.5949858837E+00
                       3.9296744939E+00  1.9282971442E-05  4.7852586526E+00
                       3.9296744939E+00  1.9282971442E-05  7.9746284148E+00
                       1.9282971441E-05  3.9295139260E+00  1.0070134324E-04
                       1.9282971441E-05  3.9295139260E+00  3.1898710660E+00
                       1.9282971441E-05  3.9295139260E+00  6.3799435337E+00
                       9.4786464191E-01  6.5171786893E+00  1.5949858837E+00
                       9.4801788694E-01  6.5162001979E+00  4.7870264590E+00
                       9.4801788694E-01  6.5162001979E+00  7.9728606084E+00
                       6.9115229119E+00  1.3418877286E+00  1.5949858837E+00
                       6.9113696669E+00  1.3428662200E+00  4.7870264590E+00
                       6.9113696669E+00  1.3428662200E+00  7.9728606084E+00
                       1.3416373449E+00  9.4917149367E-01 -1.4768584789E-04
                       1.3416373449E+00  9.4917149367E-01  3.1901194532E+00
                       1.3423395811E+00  9.4955337907E-01  6.3799435337E+00
                       6.5177502090E+00  6.9098949242E+00 -1.4768584789E-04
                       6.5177502090E+00  6.9098949242E+00  3.1901194532E+00
                       6.5170479727E+00  6.9095130388E+00  6.3799435337E+00
                       2.7468879029E+00  5.3755672544E+00  4.4001427669E-04
                       2.7468879029E+00  5.3755672544E+00  3.1895317530E+00
                       2.7481203507E+00  5.3763059667E+00  6.3799435337E+00
                       5.1124996509E+00  2.4834991634E+00  4.4001427669E-04
                       5.1124996509E+00  2.4834991634E+00  3.1895317530E+00
                       5.1112672031E+00  2.4827604512E+00  6.3799435337E+00
                       2.4839829063E+00  2.7465922583E+00  1.5949858837E+00
                       2.4831428830E+00  2.7490645110E+00  4.7864781737E+00
                       2.4831428830E+00  2.7490645110E+00  7.9734088937E+00
                       5.3754046475E+00  5.1124741596E+00  1.5949858837E+00
                       5.3762446709E+00  5.1100019069E+00  4.7864781737E+00
                       5.3762446709E+00  5.1100019069E+00  7.9734088937E+00
                       4.5867636604E+00  5.7784624501E+00 -1.9742570682E-03
                       4.5867636604E+00  5.7784624501E+00  3.1919460244E+00
                       4.5871385006E+00  5.7819031178E+00  6.3799435337E+00
                       3.2726238935E+00  2.0806039678E+00 -1.9742570682E-03
                       3.2726238935E+00  2.0806039678E+00  3.1919460244E+00
                       3.2722490532E+00  2.0771633001E+00  6.3799435337E+00
                       2.0765953997E+00  4.5862688591E+00  1.5949858837E+00
                       2.0768961780E+00  4.5877495014E+00  4.7852732735E+00
                       2.0768961780E+00  4.5877495014E+00  7.9746137939E+00
                       5.7827921541E+00  3.2727975588E+00  1.5949858837E+00
                       5.7824913758E+00  3.2713169165E+00  4.7852732735E+00
                       5.7824913758E+00  3.2713169165E+00  7.9746137939E+00
                       1.9380724745E+00  6.9965611825E+00 -2.5520762317E-03
                       1.9380724745E+00  6.9965611825E+00  3.1925238436E+00
                       1.9448465581E+00  6.9991034015E+00  6.3799435337E+00
                       5.9213150793E+00  8.6250523535E-01 -2.5520762317E-03
                       5.9213150793E+00  8.6250523535E-01  3.1925238436E+00
                       5.9145409957E+00  8.5996301644E-01  6.3799435337E+00
                       8.6202576552E-01  1.9435889271E+00  1.5949858837E+00
                       8.6136782512E-01  1.9450876853E+00  4.7857510266E+00
                       8.6136782512E-01  1.9450876853E+00  7.9741360407E+00
                       6.9973617883E+00  5.9154774908E+00  1.5949858837E+00
                       6.9980197287E+00  5.9139787326E+00  4.7857510266E+00
                       6.9980197287E+00  5.9139787326E+00  7.9741360407E+00
            xcart      7.4260085849E+00  3.6439535053E-05  3.0140865059E+00
                       7.4260085849E+00  3.6439535053E-05  9.0428283284E+00
                       7.4260085849E+00  3.6439535053E-05  1.5069863715E+01
                       3.6439535052E-05  7.4257051555E+00  1.9029795994E-04
                       3.6439535052E-05  7.4257051555E+00  6.0279827139E+00
                       3.6439535052E-05  7.4257051555E+00  1.2056346022E+01
                       1.7912045842E+00  1.2315682882E+01  3.0140865059E+00
                       1.7914941754E+00  1.2313833801E+01  9.0461689984E+00
                       1.7914941754E+00  1.2313833801E+01  1.5066523045E+01
                       1.3060885465E+01  2.5358003081E+00  3.0140865059E+00
                       1.3060595874E+01  2.5376493890E+00  9.0461689984E+00
                       1.3060595874E+01  2.5376493890E+00  1.5066523045E+01
                       2.5353271515E+00  1.7936741762E+00 -2.7908580621E-04
                       2.5353271515E+00  1.7936741762E+00  6.0284520977E+00
                       2.5366541857E+00  1.7943958350E+00  1.2056346022E+01
                       1.2316762898E+01  1.3057809014E+01 -2.7908580621E-04
                       1.2316762898E+01  1.3057809014E+01  6.0284520977E+00
                       1.2315435863E+01  1.3057087355E+01  1.2056346022E+01
                       5.1908658542E+00  1.0158349920E+01  8.3150647750E-04
                       5.1908658542E+00  1.0158349920E+01  6.0273415054E+00
                       5.1931948430E+00  1.0159745884E+01  1.2056346022E+01
                       9.6612241947E+00  4.6931332702E+00  8.3150647750E-04
                       9.6612241947E+00  4.6931332702E+00  6.0273415054E+00
                       9.6588952060E+00  4.6917373064E+00  1.2056346022E+01
                       4.6940474118E+00  5.1903071669E+00  3.0140865059E+00
                       4.6924599976E+00  5.1949790475E+00  9.0451328893E+00
                       4.6924599976E+00  5.1949790475E+00  1.5067559155E+01
                       1.0158042637E+01  9.6611760230E+00  3.0140865059E+00
                       1.0159630051E+01  9.6565041425E+00  9.0451328893E+00
                       1.0159630051E+01  9.6565041425E+00  1.5067559155E+01
                       8.6677271543E+00  1.0919711500E+01 -3.7308051748E-03
                       8.6677271543E+00  1.0919711500E+01  6.0319038170E+00
                       8.6684354997E+00  1.0926213419E+01  1.2056346022E+01
                       6.1843628946E+00  3.9317716902E+00 -3.7308051748E-03
                       6.1843628946E+00  3.9317716902E+00  6.0319038170E+00
                       6.1836545492E+00  3.9252697705E+00  1.2056346022E+01
                       3.9241965943E+00  8.6667921154E+00  3.0140865059E+00
                       3.9247649829E+00  8.6695901239E+00  9.0428559579E+00
                       3.9247649829E+00  8.6695901239E+00  1.5069836086E+01
                       1.0927893455E+01  6.1846910746E+00  3.0140865059E+00
                       1.0927325066E+01  6.1818930661E+00  9.0428559579E+00
                       1.0927325066E+01  6.1818930661E+00  1.5069836086E+01
                       3.6624262025E+00  1.3221584507E+01 -4.8227251483E-03
                       3.6624262025E+00  1.3221584507E+01  6.0329957370E+00
                       3.6752273653E+00  1.3226388604E+01  1.2056346022E+01
                       1.1189663846E+01  1.6298986830E+00 -4.8227251483E-03
                       1.1189663846E+01  1.6298986830E+00  6.0329957370E+00
                       1.1176862684E+01  1.6250945855E+00  1.2056346022E+01
                       1.6289926163E+00  3.6728507871E+00  3.0140865059E+00
                       1.6277492891E+00  3.6756830296E+00  9.0437587805E+00
                       1.6277492891E+00  3.6756830296E+00  1.5068933263E+01
                       1.3223097433E+01  1.1178632403E+01  3.0140865059E+00
                       1.3224340760E+01  1.1175800160E+01  9.0437587805E+00
                       1.3224340760E+01  1.1175800160E+01  1.5068933263E+01
             xred      5.0000000000E-01  2.9463205325E-22  1.6666666670E-01
                       5.0000000000E-01  2.9463205325E-22  5.0003145300E-01
                       5.0000000000E-01  2.9463205325E-22  8.3330188040E-01
                      -5.5511151231E-17  5.0000000000E-01  1.0522699531E-05
                      -5.5511151231E-17  5.0000000000E-01  3.3332281070E-01
                      -5.5511151231E-17  5.0000000000E-01  6.6666666670E-01
                       1.2059938580E-01  8.2925956760E-01  1.6666666670E-01
                       1.2061888485E-01  8.2913506210E-01  5.0021617840E-01
                       1.2061888485E-01  8.2913506210E-01  8.3311715500E-01
                       8.7940061420E-01  1.7074043240E-01  1.6666666670E-01
                       8.7938111515E-01  1.7086493790E-01  5.0021617840E-01
                       8.7938111515E-01  1.7086493790E-01  8.3311715500E-01
                       1.7070532040E-01  1.2077383210E-01 -1.5432304598E-05
                       1.7070532040E-01  1.2077383210E-01  3.3334876570E-01
                       1.7079467060E-01  1.2082242360E-01  6.6666666670E-01
                       8.2929467960E-01  8.7922616790E-01 -1.5432304598E-05
                       8.2929467960E-01  8.7922616790E-01  3.3334876570E-01
                       8.2920532940E-01  8.7917757640E-01  6.6666666670E-01
                       3.4950242420E-01  6.8399729290E-01  4.5978910250E-05
                       3.4950242420E-01  6.8399729290E-01  3.3328735449E-01
                       3.4965923670E-01  6.8409128750E-01  6.6666666670E-01
                       6.5049757580E-01  3.1600270710E-01  4.5978910250E-05
                       6.5049757580E-01  3.1600270710E-01  3.3328735449E-01
                       6.5034076330E-01  3.1590871250E-01  6.6666666670E-01
                       3.1605282220E-01  3.4948089270E-01  1.6666666670E-01
                       3.1594593860E-01  3.4979546810E-01  5.0015888580E-01
                       3.1594593860E-01  3.4979546810E-01  8.3317444760E-01
                       6.8394717780E-01  6.5051910730E-01  1.6666666670E-01
                       6.8405406140E-01  6.5020453190E-01  5.0015888580E-01
                       6.8405406140E-01  6.5020453190E-01  8.3317444760E-01
                       5.8360244740E-01  7.3526141550E-01 -2.0629828022E-04
                       5.8360244740E-01  7.3526141550E-01  3.3353963168E-01
                       5.8365013880E-01  7.3569921340E-01  6.6666666670E-01
                       4.1639755260E-01  2.6473858450E-01 -2.0629828022E-04
                       4.1639755260E-01  2.6473858450E-01  3.3353963168E-01
                       4.1634986120E-01  2.6430078660E-01  6.6666666670E-01
                       2.6421690870E-01  5.8356564650E-01  1.6666666670E-01
                       2.6425517790E-01  5.8375404650E-01  5.0003298080E-01
                       2.6425517790E-01  5.8375404650E-01  8.3330035260E-01
                       7.3578309130E-01  4.1643435350E-01  1.6666666670E-01
                       7.3574482210E-01  4.1624595350E-01  5.0003298080E-01
                       7.3574482210E-01  4.1624595350E-01  8.3330035260E-01
                       2.4659016210E-01  8.9025663280E-01 -2.6667699261E-04
                       2.4659016210E-01  8.9025663280E-01  3.3360001039E-01
                       2.4745207460E-01  8.9058010610E-01  6.6666666670E-01
                       7.5340983790E-01  1.0974336720E-01 -2.6667699261E-04
                       7.5340983790E-01  1.0974336720E-01  3.3360001039E-01
                       7.5254792540E-01  1.0941989390E-01  6.6666666670E-01
                       1.0968036020E-01  2.4730599430E-01  1.6666666670E-01
                       1.0959664490E-01  2.4749670000E-01  5.0008290320E-01
                       1.0959664490E-01  2.4749670000E-01  8.3325043020E-01
                       8.9031963980E-01  7.5269400570E-01  1.6666666670E-01
                       8.9040335510E-01  7.5250330000E-01  5.0008290320E-01
                       8.9040335510E-01  7.5250330000E-01  8.3325043020E-01
            znucl       63.00000   38.00000    3.00000   13.00000    7.00000    8.00000

================================================================================


- Timing analysis has been suppressed with timopt=0



================================================================================

 Suggested references for the acknowledgment of ABINIT usage.

 The users of ABINIT have little formal obligations with respect to the ABINIT group
 (those specified in the GNU General Public License, http://www.gnu.org/copyleft/gpl.txt).
 However, it is common practice in the scientific literature,
 to acknowledge the efforts of people that have made the research possible.
 In this spirit, please find below suggested citations of work written by ABINIT developers,
 corresponding to implementations inside of ABINIT that you have used in the present run.
 Note also that it will be of great value to readers of publications presenting these results,
 to read papers enabling them to understand the theoretical formalism and details
 of the ABINIT implementation.
 For information on why they are suggested, see also https://docs.abinit.org/theory/acknowledgments.
-
- [1] Gamma and beta cerium: DFT+U calculations of ground-state parameters.
- B. Amadon, F. Jollet and M. Torrent, Phys. Rev. B 77, 155104 (2008).
- Comment: DFT+U calculations, usepawu/=0. Strong suggestion to cite this paper.
- DOI and bibtex: see https://docs.abinit.org/theory/bibliography/#amadon2008a
-
- [2] Implementation of the Projector Augmented-Wave Method in the ABINIT code.
- M. Torrent, F. Jollet, F. Bottin, G. Zerah, and X. Gonze Comput. Mat. Science 42, 337, (2008).
- Comment: PAW calculations. Strong suggestion to cite this paper.
- DOI and bibtex: see https://docs.abinit.org/theory/bibliography/#torrent2008
-
- [3] Libxc: A library of exchange and correlation functionals for density functional theory.
- M.A.L. Marques, M.J.T. Oliveira, T. Burnus, Computer Physics Communications 183, 2227 (2012).
- Comment: to be cited when LibXC is used (negative value of ixc)
- Strong suggestion to cite this paper.
- DOI and bibtex: see https://docs.abinit.org/theory/bibliography/#marques2012
-
- [4] Large scale ab initio calculations based on three levels of parallelization
- F. Bottin, S. Leroux, A. Knyazev, G. Zerah, Comput. Mat. Science 42, 329, (2008).
- Comment: in case LOBPCG algorithm is used (wfoptalg=4/14/114).
- Strong suggestion to cite this paper in your publications.
- This paper is also available at http://www.arxiv.org/abs/0707.3405
- DOI and bibtex: see https://docs.abinit.org/theory/bibliography/#bottin2008
-
- [5] The Abinit project: Impact, environment and recent developments.
- Computer Phys. Comm. 248, 107042 (2020).
- X.Gonze, B. Amadon, G. Antonius, F.Arnardi, L.Baguet, J.-M.Beuken,
- J.Bieder, F.Bottin, J.Bouchet, E.Bousquet, N.Brouwer, F.Bruneval,
- G.Brunin, T.Cavignac, J.-B. Charraud, Wei Chen, M.Cote, S.Cottenier,
- J.Denier, G.Geneste, Ph.Ghosez, M.Giantomassi, Y.Gillet, O.Gingras,
- D.R.Hamann, G.Hautier, Xu He, N.Helbig, N.Holzwarth, Y.Jia, F.Jollet,
- W.Lafargue-Dit-Hauret, K.Lejaeghere, M.A.L.Marques, A.Martin, C.Martins,
- H.P.C. Miranda, F.Naccarato, K. Persson, G.Petretto, V.Planes, Y.Pouillon,
- S.Prokhorenko, F.Ricci, G.-M.Rignanese, A.H.Romero, M.M.Schmitt, M.Torrent,
- M.J.van Setten, B.Van Troeye, M.J.Verstraete, G.Zerah and J.W.Zwanzig
- Comment: the fifth generic paper describing the ABINIT project.
- Note that a version of this paper, that is not formatted for Computer Phys. Comm. 
- is available at https://www.abinit.org/sites/default/files/ABINIT20.pdf .
- The licence allows the authors to put it on the Web.
- DOI and bibtex: see https://docs.abinit.org/theory/bibliography/#gonze2020
-
- [6] ABINIT: Overview, and focus on selected capabilities
- J. Chem. Phys. 152, 124102 (2020).
- A. Romero, D.C. Allan, B. Amadon, G. Antonius, T. Applencourt, L.Baguet,
- J.Bieder, F.Bottin, J.Bouchet, E.Bousquet, F.Bruneval,
- G.Brunin, D.Caliste, M.Cote,
- J.Denier, C. Dreyer, Ph.Ghosez, M.Giantomassi, Y.Gillet, O.Gingras,
- D.R.Hamann, G.Hautier, F.Jollet, G. Jomard,
- A.Martin, 
- H.P.C. Miranda, F.Naccarato, G.Petretto, N.A. Pike, V.Planes,
- S.Prokhorenko, T. Rangel, F.Ricci, G.-M.Rignanese, M.Royo, M.Stengel, M.Torrent,
- M.J.van Setten, B.Van Troeye, M.J.Verstraete, J.Wiktor, J.W.Zwanziger, and X.Gonze.
- Comment: a global overview of ABINIT, with focus on selected capabilities .
- Note that a version of this paper, that is not formatted for J. Chem. Phys 
- is available at https://www.abinit.org/sites/default/files/ABINIT20_JPC.pdf .
- The licence allows the authors to put it on the Web.
- DOI and bibtex: see https://docs.abinit.org/theory/bibliography/#romero2020
-
- [7] Recent developments in the ABINIT software package.
- Computer Phys. Comm. 205, 106 (2016).
- X.Gonze, F.Jollet, F.Abreu Araujo, D.Adams, B.Amadon, T.Applencourt,
- C.Audouze, J.-M.Beuken, J.Bieder, A.Bokhanchuk, E.Bousquet, F.Bruneval
- D.Caliste, M.Cote, F.Dahm, F.Da Pieve, M.Delaveau, M.Di Gennaro,
- B.Dorado, C.Espejo, G.Geneste, L.Genovese, A.Gerossier, M.Giantomassi,
- Y.Gillet, D.R.Hamann, L.He, G.Jomard, J.Laflamme Janssen, S.Le Roux,
- A.Levitt, A.Lherbier, F.Liu, I.Lukacevic, A.Martin, C.Martins,
- M.J.T.Oliveira, S.Ponce, Y.Pouillon, T.Rangel, G.-M.Rignanese,
- A.H.Romero, B.Rousseau, O.Rubel, A.A.Shukri, M.Stankovski, M.Torrent,
- M.J.Van Setten, B.Van Troeye, M.J.Verstraete, D.Waroquier, J.Wiktor,
- B.Xu, A.Zhou, J.W.Zwanziger.
- Comment: the fourth generic paper describing the ABINIT project.
- Note that a version of this paper, that is not formatted for Computer Phys. Comm. 
- is available at https://www.abinit.org/sites/default/files/ABINIT16.pdf .
- The licence allows the authors to put it on the Web.
- DOI and bibtex: see https://docs.abinit.org/theory/bibliography/#gonze2016
-
- Proc.   0 individual time (sec): cpu=         13.9  wall=         15.6

================================================================================

 Calculation completed.
.Delivered   0 WARNINGs and   0 COMMENTs to log file.
+Overall time at end (sec) : cpu=       1805.4  wall=       1867.8
