
.Version 9.10.5 of ABINIT 
.(MPI version, prepared for a x86_64_linux_gnu12.3 computer) 

.Copyright (C) 1998-2022 ABINIT group . 
 ABINIT comes with ABSOLUTELY NO WARRANTY.
 It is free software, and you are welcome to redistribute it
 under certain conditions (GNU General Public License,
 see ~abinit/COPYING or http://www.gnu.org/copyleft/gpl.txt).

 ABINIT is a project of the Universite Catholique de Louvain,
 Corning Inc. and other collaborators, see ~abinit/doc/developers/contributors.txt .
 Please read https://docs.abinit.org/theory/acknowledgments for suggested
 acknowledgments of the ABINIT effort.
 For more information, see https://www.abinit.org .

.Starting date : Fri 15 Mar 2024.
- ( at 14h50 )
  
- input  file    -> /gpfs/projects/acad/leds/DataBase_examples/adding_entry_to_DB/flow_lumi/w0/t1/run.abi
- output file    -> /gpfs/projects/acad/leds/DataBase_examples/adding_entry_to_DB/flow_lumi/w0/t1/run.abo
- root for input  files -> indata/in
- root for output files -> outdata/out

- inpspheads : Reading pseudopotential header in XML form from 
-   /gpfs/home/acad/ucl-modl/jbouq/paw-sr-11_pbe_standard_xml/Eu.xml
- inpspheads : Reading pseudopotential header in XML form from 
-   /gpfs/home/acad/ucl-modl/jbouq/paw-sr-11_pbe_standard_xml/Sr.xml
- inpspheads : Reading pseudopotential header in XML form from 
-   /gpfs/home/acad/ucl-modl/jbouq/paw-sr-11_pbe_standard_xml/Li.xml
- inpspheads : Reading pseudopotential header in XML form from 
-   /gpfs/home/acad/ucl-modl/jbouq/paw-sr-11_pbe_standard_xml/Al.xml
- inpspheads : Reading pseudopotential header in XML form from 
-   /gpfs/home/acad/ucl-modl/jbouq/paw-sr-11_pbe_standard_xml/N.xml
- inpspheads : Reading pseudopotential header in XML form from 
-   /gpfs/home/acad/ucl-modl/jbouq/paw-sr-11_pbe_standard_xml/O.xml

 Symmetries : space group P2/m (# 10); Bravais mP (primitive monocl.)
================================================================================
 Values of the parameters that define the memory need of the present run
     intxc =       0    ionmov =       2      iscf =      17    lmnmax =      32
     lnmax =       8     mgfft =      60  mpssoang =       4    mqgrid =    4187
     natom =      54  nloc_mem =       2    nspden =       2   nspinor =       1
    nsppol =       2      nsym =       4    n1xccc =       1    ntypat =       6
    occopt =       2   xclevel =       2
-    mband =         180        mffmem =           1         mkmem =           1
       mpw =          73          nfft =       27000          nkpt =           1
Pmy_natom=         3
 PAW method is used; the additional fine FFT grid is defined by:
   mgfftf=        90    nfftf =     77760
================================================================================
P This job should need less than                      74.213 Mbytes of memory.
  Rough estimation (10% accuracy) of disk space for files :
_ WF disk file :      2.408 Mbytes ; DEN or POT disk file :      1.189 Mbytes.
================================================================================

--------------------------------------------------------------------------------
------------- Echo of variables that govern the present computation ------------
--------------------------------------------------------------------------------
-
- outvars: echo of selected default values                                      
-   iomode0 =  0 , fftalg0 =312 , wfoptalg0 = 10
-
- outvars: echo of global parameters not present in the input file              
-  max_nthreads =    0
-
 -outvars: echo values of preprocessed input variables --------
-          iomode           1
            acell      1.0000000000E+00  1.0000000000E+00  1.0000000000E+00 Bohr
              amu      1.51965000E+02  8.76200000E+01  6.94100000E+00
                       2.69815390E+01  1.40067400E+01  1.59994000E+01
        autoparal           1
           bandpp           6
       chkdilatmx           0
          chkprim           0
      chksymbreak           0
     densfor_pred           6
           diemac      5.00000000E+00
          dilatmx      1.15000000E+00
             ecut      1.00000000E+01 Hartree
           ecutsm      5.00000000E-01 Hartree
-          fftalg         312
           ionmov           2
           irdden           1
           istwfk        2
              ixc     -101130
            jpawu      2.57245278E-02  0.00000000E+00  0.00000000E+00  0.00000000E+00  0.00000000E+00  0.00000000E+00 Hartree
         kptrlatt        1    0    0      0    1    0      0    0    1
          kptrlen      1.48514103E+01
            lpawu           3      -1      -1      -1      -1      -1
P           mkmem           1
            natom          54
            nband         180     180
           nbdbuf          30
            ngfft          50      54      60
          ngfftdg          72      72      90
             nkpt           1
-          npband          10
-           npfft           6
-        np_spkpt           2
           nspden           2
           nsppol           2
            nstep         300
             nsym           4
            ntime        1000
           ntypat           6
              occ      1.000000  1.000000  1.000000  1.000000  1.000000  1.000000
                       1.000000  1.000000  1.000000  1.000000  1.000000  1.000000
                       1.000000  1.000000  1.000000  1.000000  1.000000  1.000000
                       1.000000  1.000000  1.000000  1.000000  1.000000  1.000000
                       1.000000  1.000000  1.000000  1.000000  1.000000  1.000000
                       1.000000  1.000000  1.000000  1.000000  1.000000  1.000000
                       1.000000  1.000000  1.000000  1.000000  1.000000  1.000000
                       1.000000  1.000000  1.000000  1.000000  1.000000  1.000000
                       1.000000  1.000000  1.000000  1.000000  1.000000  1.000000
                       1.000000  1.000000  1.000000  1.000000  1.000000  1.000000
                       1.000000  1.000000  1.000000  1.000000  1.000000  1.000000
                       1.000000  1.000000  1.000000  1.000000  1.000000  1.000000
                       1.000000  1.000000  1.000000  1.000000  1.000000  1.000000
                       1.000000  1.000000  1.000000  1.000000  1.000000  1.000000
                       1.000000  1.000000  1.000000  1.000000  1.000000  1.000000
                       1.000000  1.000000  1.000000  1.000000  1.000000  1.000000
                       1.000000  1.000000  1.000000  1.000000  1.000000  1.000000
                       1.000000  1.000000  1.000000  1.000000  1.000000  1.000000
                       1.000000  1.000000  1.000000  1.000000  1.000000  1.000000
                       1.000000  1.000000  1.000000  1.000000  1.000000  1.000000
                       1.000000  1.000000  1.000000  1.000000  1.000000  1.000000
                       1.000000  1.000000  1.000000  1.000000  1.000000  1.000000
                       1.000000  1.000000  1.000000  1.000000  1.000000  1.000000
                       0.000000  1.000000  0.000000  0.000000  0.000000  0.000000
                       0.000000  0.000000  0.000000  0.000000  0.000000  0.000000
                       0.000000  0.000000  0.000000  0.000000  0.000000  0.000000
                       0.000000  0.000000  0.000000  0.000000  0.000000  0.000000
                       0.000000  0.000000  0.000000  0.000000  0.000000  0.000000
                       0.000000  0.000000  0.000000  0.000000  0.000000  0.000000
                       0.000000  0.000000  0.000000  0.000000  0.000000  0.000000
                       1.000000  1.000000  1.000000  1.000000  1.000000  1.000000
                       1.000000  1.000000  1.000000  1.000000  1.000000  1.000000
                       1.000000  1.000000  1.000000  1.000000  1.000000  1.000000
                       1.000000  1.000000  1.000000  1.000000  1.000000  1.000000
                       1.000000  1.000000  1.000000  1.000000  1.000000  1.000000
                       1.000000  1.000000  1.000000  1.000000  1.000000  1.000000
                       1.000000  1.000000  1.000000  1.000000  1.000000  1.000000
                       1.000000  1.000000  1.000000  1.000000  1.000000  1.000000
                       1.000000  1.000000  1.000000  1.000000  1.000000  1.000000
                       1.000000  1.000000  1.000000  1.000000  1.000000  1.000000
                       1.000000  1.000000  1.000000  1.000000  1.000000  1.000000
                       1.000000  1.000000  1.000000  1.000000  1.000000  1.000000
                       1.000000  1.000000  1.000000  1.000000  1.000000  1.000000
                       1.000000  1.000000  1.000000  1.000000  1.000000  1.000000
                       1.000000  1.000000  1.000000  1.000000  1.000000  1.000000
                       1.000000  1.000000  1.000000  1.000000  1.000000  1.000000
                       1.000000  1.000000  1.000000  1.000000  1.000000  1.000000
                       1.000000  1.000000  1.000000  1.000000  1.000000  1.000000
                       1.000000  1.000000  1.000000  1.000000  1.000000  1.000000
                       1.000000  1.000000  1.000000  1.000000  1.000000  1.000000
                       1.000000  1.000000  1.000000  1.000000  1.000000  1.000000
                       1.000000  1.000000  1.000000  1.000000  1.000000  1.000000
                       0.000000  0.000000  0.000000  0.000000  0.000000  0.000000
                       0.000000  0.000000  0.000000  0.000000  0.000000  0.000000
                       0.000000  0.000000  0.000000  0.000000  0.000000  0.000000
                       0.000000  0.000000  0.000000  0.000000  0.000000  0.000000
                       0.000000  0.000000  0.000000  0.000000  0.000000  0.000000
                       0.000000  0.000000  0.000000  0.000000  0.000000  0.000000
                       0.000000  0.000000  0.000000  0.000000  0.000000  0.000000
                       0.000000  0.000000  0.000000  0.000000  0.000000  0.000000
           occopt           2
        optforces           1
        paral_kgb           1
        pawecutdg      2.00000000E+01 Hartree
         pawmixdg           1
            prtwf           0
            rprim      1.4852017170E+01  7.2879070107E-05  0.0000000000E+00
                       7.2879070106E-05  1.4851410311E+01  0.0000000000E+00
                       0.0000000000E+00  0.0000000000E+00  1.8084519032E+01
          spgroup          10
           spinat      0.0000000000E+00  0.0000000000E+00  7.0000000000E+00
                       0.0000000000E+00  0.0000000000E+00  0.0000000000E+00
                       0.0000000000E+00  0.0000000000E+00  0.0000000000E+00
                       0.0000000000E+00  0.0000000000E+00  0.0000000000E+00
                       0.0000000000E+00  0.0000000000E+00  0.0000000000E+00
                       0.0000000000E+00  0.0000000000E+00  0.0000000000E+00
                       0.0000000000E+00  0.0000000000E+00  0.0000000000E+00
                       0.0000000000E+00  0.0000000000E+00  0.0000000000E+00
                       0.0000000000E+00  0.0000000000E+00  0.0000000000E+00
                       0.0000000000E+00  0.0000000000E+00  0.0000000000E+00
                       0.0000000000E+00  0.0000000000E+00  0.0000000000E+00
                       0.0000000000E+00  0.0000000000E+00  0.0000000000E+00
                       0.0000000000E+00  0.0000000000E+00  0.0000000000E+00
                       0.0000000000E+00  0.0000000000E+00  0.0000000000E+00
                       0.0000000000E+00  0.0000000000E+00  0.0000000000E+00
                       0.0000000000E+00  0.0000000000E+00  0.0000000000E+00
                       0.0000000000E+00  0.0000000000E+00  0.0000000000E+00
                       0.0000000000E+00  0.0000000000E+00  0.0000000000E+00
                       0.0000000000E+00  0.0000000000E+00  0.0000000000E+00
                       0.0000000000E+00  0.0000000000E+00  0.0000000000E+00
                       0.0000000000E+00  0.0000000000E+00  0.0000000000E+00
                       0.0000000000E+00  0.0000000000E+00  0.0000000000E+00
                       0.0000000000E+00  0.0000000000E+00  0.0000000000E+00
                       0.0000000000E+00  0.0000000000E+00  0.0000000000E+00
                       0.0000000000E+00  0.0000000000E+00  0.0000000000E+00
                       0.0000000000E+00  0.0000000000E+00  0.0000000000E+00
                       0.0000000000E+00  0.0000000000E+00  0.0000000000E+00
                       0.0000000000E+00  0.0000000000E+00  0.0000000000E+00
                       0.0000000000E+00  0.0000000000E+00  0.0000000000E+00
                       0.0000000000E+00  0.0000000000E+00  0.0000000000E+00
                       0.0000000000E+00  0.0000000000E+00  0.0000000000E+00
                       0.0000000000E+00  0.0000000000E+00  0.0000000000E+00
                       0.0000000000E+00  0.0000000000E+00  0.0000000000E+00
                       0.0000000000E+00  0.0000000000E+00  0.0000000000E+00
                       0.0000000000E+00  0.0000000000E+00  0.0000000000E+00
                       0.0000000000E+00  0.0000000000E+00  0.0000000000E+00
                       0.0000000000E+00  0.0000000000E+00  0.0000000000E+00
                       0.0000000000E+00  0.0000000000E+00  0.0000000000E+00
                       0.0000000000E+00  0.0000000000E+00  0.0000000000E+00
                       0.0000000000E+00  0.0000000000E+00  0.0000000000E+00
                       0.0000000000E+00  0.0000000000E+00  0.0000000000E+00
                       0.0000000000E+00  0.0000000000E+00  0.0000000000E+00
                       0.0000000000E+00  0.0000000000E+00  0.0000000000E+00
                       0.0000000000E+00  0.0000000000E+00  0.0000000000E+00
                       0.0000000000E+00  0.0000000000E+00  0.0000000000E+00
                       0.0000000000E+00  0.0000000000E+00  0.0000000000E+00
                       0.0000000000E+00  0.0000000000E+00  0.0000000000E+00
                       0.0000000000E+00  0.0000000000E+00  0.0000000000E+00
                       0.0000000000E+00  0.0000000000E+00  0.0000000000E+00
                       0.0000000000E+00  0.0000000000E+00  0.0000000000E+00
                       0.0000000000E+00  0.0000000000E+00  0.0000000000E+00
                       0.0000000000E+00  0.0000000000E+00  0.0000000000E+00
                       0.0000000000E+00  0.0000000000E+00  0.0000000000E+00
                       0.0000000000E+00  0.0000000000E+00  0.0000000000E+00
           symrel      1  0  0   0  1  0   0  0  1      -1  0  0   0 -1  0   0  0 -1
                      -1  0  0   0 -1  0   0  0  1       1  0  0   0  1  0   0  0 -1
            tnons      0.0000000  0.0000000  0.0000000    -0.0000000  0.0000000  0.3333333
                      -0.0000000  0.0000000  0.0000000     0.0000000  0.0000000  0.3333333
           toldff      1.00000000E-04
           tolmxf      1.00000000E-03
            typat      1  2  2  2  2  2  3  3  3  3  3  3  3  3  3  3  3  3  4  4
                       4  4  4  4  4  4  4  4  4  4  5  5  5  5  5  5  5  5  5  5
                       5  5  6  6  6  6  6  6  6  6  6  6  6  6
            upawu      2.57245278E-01  0.00000000E+00  0.00000000E+00  0.00000000E+00  0.00000000E+00  0.00000000E+00 Hartree
          usepawu           1
           useylm           1
         wfoptalg         114
           xangst      3.9296744939E+00  1.9282971442E-05  1.5949858837E+00
                       3.9296744939E+00  1.9282971442E-05  4.7852586526E+00
                       3.9296744939E+00  1.9282971442E-05  7.9746284148E+00
                       1.9282971441E-05  3.9295139260E+00  1.0070134324E-04
                       1.9282971441E-05  3.9295139260E+00  3.1898710660E+00
                       1.9282971441E-05  3.9295139260E+00  6.3799435337E+00
                       9.4786464191E-01  6.5171786893E+00  1.5949858837E+00
                       9.4801788694E-01  6.5162001979E+00  4.7870264590E+00
                       9.4801788694E-01  6.5162001979E+00  7.9728606084E+00
                       6.9115229119E+00  1.3418877286E+00  1.5949858837E+00
                       6.9113696669E+00  1.3428662200E+00  4.7870264590E+00
                       6.9113696669E+00  1.3428662200E+00  7.9728606084E+00
                       1.3416373449E+00  9.4917149367E-01 -1.4768584789E-04
                       1.3416373449E+00  9.4917149367E-01  3.1901194532E+00
                       1.3423395811E+00  9.4955337907E-01  6.3799435337E+00
                       6.5177502090E+00  6.9098949242E+00 -1.4768584789E-04
                       6.5177502090E+00  6.9098949242E+00  3.1901194532E+00
                       6.5170479727E+00  6.9095130388E+00  6.3799435337E+00
                       2.7468879029E+00  5.3755672544E+00  4.4001427669E-04
                       2.7468879029E+00  5.3755672544E+00  3.1895317530E+00
                       2.7481203507E+00  5.3763059667E+00  6.3799435337E+00
                       5.1124996509E+00  2.4834991634E+00  4.4001427669E-04
                       5.1124996509E+00  2.4834991634E+00  3.1895317530E+00
                       5.1112672031E+00  2.4827604512E+00  6.3799435337E+00
                       2.4839829063E+00  2.7465922583E+00  1.5949858837E+00
                       2.4831428830E+00  2.7490645110E+00  4.7864781737E+00
                       2.4831428830E+00  2.7490645110E+00  7.9734088937E+00
                       5.3754046475E+00  5.1124741596E+00  1.5949858837E+00
                       5.3762446709E+00  5.1100019069E+00  4.7864781737E+00
                       5.3762446709E+00  5.1100019069E+00  7.9734088937E+00
                       4.5867636604E+00  5.7784624501E+00 -1.9742570682E-03
                       4.5867636604E+00  5.7784624501E+00  3.1919460244E+00
                       4.5871385006E+00  5.7819031178E+00  6.3799435337E+00
                       3.2726238935E+00  2.0806039678E+00 -1.9742570682E-03
                       3.2726238935E+00  2.0806039678E+00  3.1919460244E+00
                       3.2722490532E+00  2.0771633001E+00  6.3799435337E+00
                       2.0765953997E+00  4.5862688591E+00  1.5949858837E+00
                       2.0768961780E+00  4.5877495014E+00  4.7852732735E+00
                       2.0768961780E+00  4.5877495014E+00  7.9746137939E+00
                       5.7827921541E+00  3.2727975588E+00  1.5949858837E+00
                       5.7824913758E+00  3.2713169165E+00  4.7852732735E+00
                       5.7824913758E+00  3.2713169165E+00  7.9746137939E+00
                       1.9380724745E+00  6.9965611825E+00 -2.5520762317E-03
                       1.9380724745E+00  6.9965611825E+00  3.1925238436E+00
                       1.9448465581E+00  6.9991034015E+00  6.3799435337E+00
                       5.9213150793E+00  8.6250523535E-01 -2.5520762317E-03
                       5.9213150793E+00  8.6250523535E-01  3.1925238436E+00
                       5.9145409957E+00  8.5996301644E-01  6.3799435337E+00
                       8.6202576552E-01  1.9435889271E+00  1.5949858837E+00
                       8.6136782512E-01  1.9450876853E+00  4.7857510266E+00
                       8.6136782512E-01  1.9450876853E+00  7.9741360407E+00
                       6.9973617883E+00  5.9154774908E+00  1.5949858837E+00
                       6.9980197287E+00  5.9139787326E+00  4.7857510266E+00
                       6.9980197287E+00  5.9139787326E+00  7.9741360407E+00
            xcart      7.4260085849E+00  3.6439535053E-05  3.0140865059E+00
                       7.4260085849E+00  3.6439535053E-05  9.0428283284E+00
                       7.4260085849E+00  3.6439535053E-05  1.5069863715E+01
                       3.6439535052E-05  7.4257051555E+00  1.9029795994E-04
                       3.6439535052E-05  7.4257051555E+00  6.0279827139E+00
                       3.6439535052E-05  7.4257051555E+00  1.2056346022E+01
                       1.7912045842E+00  1.2315682882E+01  3.0140865059E+00
                       1.7914941754E+00  1.2313833801E+01  9.0461689984E+00
                       1.7914941754E+00  1.2313833801E+01  1.5066523045E+01
                       1.3060885465E+01  2.5358003081E+00  3.0140865059E+00
                       1.3060595874E+01  2.5376493890E+00  9.0461689984E+00
                       1.3060595874E+01  2.5376493890E+00  1.5066523045E+01
                       2.5353271515E+00  1.7936741762E+00 -2.7908580621E-04
                       2.5353271515E+00  1.7936741762E+00  6.0284520977E+00
                       2.5366541857E+00  1.7943958350E+00  1.2056346022E+01
                       1.2316762898E+01  1.3057809014E+01 -2.7908580621E-04
                       1.2316762898E+01  1.3057809014E+01  6.0284520977E+00
                       1.2315435863E+01  1.3057087355E+01  1.2056346022E+01
                       5.1908658542E+00  1.0158349920E+01  8.3150647750E-04
                       5.1908658542E+00  1.0158349920E+01  6.0273415054E+00
                       5.1931948430E+00  1.0159745884E+01  1.2056346022E+01
                       9.6612241947E+00  4.6931332702E+00  8.3150647750E-04
                       9.6612241947E+00  4.6931332702E+00  6.0273415054E+00
                       9.6588952060E+00  4.6917373064E+00  1.2056346022E+01
                       4.6940474118E+00  5.1903071669E+00  3.0140865059E+00
                       4.6924599976E+00  5.1949790475E+00  9.0451328893E+00
                       4.6924599976E+00  5.1949790475E+00  1.5067559155E+01
                       1.0158042637E+01  9.6611760230E+00  3.0140865059E+00
                       1.0159630051E+01  9.6565041425E+00  9.0451328893E+00
                       1.0159630051E+01  9.6565041425E+00  1.5067559155E+01
                       8.6677271543E+00  1.0919711500E+01 -3.7308051748E-03
                       8.6677271543E+00  1.0919711500E+01  6.0319038170E+00
                       8.6684354997E+00  1.0926213419E+01  1.2056346022E+01
                       6.1843628946E+00  3.9317716902E+00 -3.7308051748E-03
                       6.1843628946E+00  3.9317716902E+00  6.0319038170E+00
                       6.1836545492E+00  3.9252697705E+00  1.2056346022E+01
                       3.9241965943E+00  8.6667921154E+00  3.0140865059E+00
                       3.9247649829E+00  8.6695901239E+00  9.0428559579E+00
                       3.9247649829E+00  8.6695901239E+00  1.5069836086E+01
                       1.0927893455E+01  6.1846910746E+00  3.0140865059E+00
                       1.0927325066E+01  6.1818930661E+00  9.0428559579E+00
                       1.0927325066E+01  6.1818930661E+00  1.5069836086E+01
                       3.6624262025E+00  1.3221584507E+01 -4.8227251483E-03
                       3.6624262025E+00  1.3221584507E+01  6.0329957370E+00
                       3.6752273653E+00  1.3226388604E+01  1.2056346022E+01
                       1.1189663846E+01  1.6298986830E+00 -4.8227251483E-03
                       1.1189663846E+01  1.6298986830E+00  6.0329957370E+00
                       1.1176862684E+01  1.6250945855E+00  1.2056346022E+01
                       1.6289926163E+00  3.6728507871E+00  3.0140865059E+00
                       1.6277492891E+00  3.6756830296E+00  9.0437587805E+00
                       1.6277492891E+00  3.6756830296E+00  1.5068933263E+01
                       1.3223097433E+01  1.1178632403E+01  3.0140865059E+00
                       1.3224340760E+01  1.1175800160E+01  9.0437587805E+00
                       1.3224340760E+01  1.1175800160E+01  1.5068933263E+01
             xred      5.0000000000E-01  2.9463205325E-22  1.6666666670E-01
                       5.0000000000E-01  2.9463205325E-22  5.0003145300E-01
                       5.0000000000E-01  2.9463205325E-22  8.3330188040E-01
                      -5.5511151231E-17  5.0000000000E-01  1.0522699531E-05
                      -5.5511151231E-17  5.0000000000E-01  3.3332281070E-01
                      -5.5511151231E-17  5.0000000000E-01  6.6666666670E-01
                       1.2059938580E-01  8.2925956760E-01  1.6666666670E-01
                       1.2061888485E-01  8.2913506210E-01  5.0021617840E-01
                       1.2061888485E-01  8.2913506210E-01  8.3311715500E-01
                       8.7940061420E-01  1.7074043240E-01  1.6666666670E-01
                       8.7938111515E-01  1.7086493790E-01  5.0021617840E-01
                       8.7938111515E-01  1.7086493790E-01  8.3311715500E-01
                       1.7070532040E-01  1.2077383210E-01 -1.5432304598E-05
                       1.7070532040E-01  1.2077383210E-01  3.3334876570E-01
                       1.7079467060E-01  1.2082242360E-01  6.6666666670E-01
                       8.2929467960E-01  8.7922616790E-01 -1.5432304598E-05
                       8.2929467960E-01  8.7922616790E-01  3.3334876570E-01
                       8.2920532940E-01  8.7917757640E-01  6.6666666670E-01
                       3.4950242420E-01  6.8399729290E-01  4.5978910250E-05
                       3.4950242420E-01  6.8399729290E-01  3.3328735449E-01
                       3.4965923670E-01  6.8409128750E-01  6.6666666670E-01
                       6.5049757580E-01  3.1600270710E-01  4.5978910250E-05
                       6.5049757580E-01  3.1600270710E-01  3.3328735449E-01
                       6.5034076330E-01  3.1590871250E-01  6.6666666670E-01
                       3.1605282220E-01  3.4948089270E-01  1.6666666670E-01
                       3.1594593860E-01  3.4979546810E-01  5.0015888580E-01
                       3.1594593860E-01  3.4979546810E-01  8.3317444760E-01
                       6.8394717780E-01  6.5051910730E-01  1.6666666670E-01
                       6.8405406140E-01  6.5020453190E-01  5.0015888580E-01
                       6.8405406140E-01  6.5020453190E-01  8.3317444760E-01
                       5.8360244740E-01  7.3526141550E-01 -2.0629828022E-04
                       5.8360244740E-01  7.3526141550E-01  3.3353963168E-01
                       5.8365013880E-01  7.3569921340E-01  6.6666666670E-01
                       4.1639755260E-01  2.6473858450E-01 -2.0629828022E-04
                       4.1639755260E-01  2.6473858450E-01  3.3353963168E-01
                       4.1634986120E-01  2.6430078660E-01  6.6666666670E-01
                       2.6421690870E-01  5.8356564650E-01  1.6666666670E-01
                       2.6425517790E-01  5.8375404650E-01  5.0003298080E-01
                       2.6425517790E-01  5.8375404650E-01  8.3330035260E-01
                       7.3578309130E-01  4.1643435350E-01  1.6666666670E-01
                       7.3574482210E-01  4.1624595350E-01  5.0003298080E-01
                       7.3574482210E-01  4.1624595350E-01  8.3330035260E-01
                       2.4659016210E-01  8.9025663280E-01 -2.6667699261E-04
                       2.4659016210E-01  8.9025663280E-01  3.3360001039E-01
                       2.4745207460E-01  8.9058010610E-01  6.6666666670E-01
                       7.5340983790E-01  1.0974336720E-01 -2.6667699261E-04
                       7.5340983790E-01  1.0974336720E-01  3.3360001039E-01
                       7.5254792540E-01  1.0941989390E-01  6.6666666670E-01
                       1.0968036020E-01  2.4730599430E-01  1.6666666670E-01
                       1.0959664490E-01  2.4749670000E-01  5.0008290320E-01
                       1.0959664490E-01  2.4749670000E-01  8.3325043020E-01
                       8.9031963980E-01  7.5269400570E-01  1.6666666670E-01
                       8.9040335510E-01  7.5250330000E-01  5.0008290320E-01
                       8.9040335510E-01  7.5250330000E-01  8.3325043020E-01
            znucl       63.00000   38.00000    3.00000   13.00000    7.00000    8.00000

================================================================================

 chkinp: Checking input parameters for consistency.

================================================================================
== DATASET  1 ==================================================================
-   mpi_nproc: 120, omp_nthreads: -1 (-1 if OMP is not activated)


--- !DatasetInfo
iteration_state: {dtset: 1, }
dimensions: {natom: 54, nkpt: 1, mband: 180, nsppol: 2, nspinor: 1, nspden: 2, mpw: 73, }
cutoff_energies: {ecut:  10.0, pawecutdg:  20.0, }
electrons: {nelect:   2.71000000E+02, charge:   0.00000000E+00, occopt:   2.00000000E+00, tsmear:   1.00000000E-02, }
meta: {optdriver: 0, ionmov: 2, optcell: 0, iscf: 17, paral_kgb: 1, }
...

 Real(R)+Recip(G) space primitive vectors, cartesian coordinates (Bohr,Bohr^-1):
 R(1)= 14.8520172  0.0000729  0.0000000  G(1)=  0.0673309 -0.0000003  0.0000000
 R(2)=  0.0000729 14.8514103  0.0000000  G(2)= -0.0000003  0.0673337  0.0000000
 R(3)=  0.0000000  0.0000000 18.0845190  G(3)=  0.0000000  0.0000000  0.0552959
 Unit cell volume ucvol=  3.9889639E+03 bohr^3
 Angles (23,13,12)=  9.00000000E+01  9.00000000E+01  8.99994377E+01 degrees

 Coarse grid specifications (used for wave-functions):

 getcut: wavevector=  0.0000  0.0000  0.0000  ngfft=  50  54  60
         ecut(hartree)=     13.225   => boxcut(ratio)=   2.02666

 Fine grid specifications (used for densities):

 getcut: wavevector=  0.0000  0.0000  0.0000  ngfft=  72  72  90
         ecut(hartree)=     26.450   => boxcut(ratio)=   2.09396

--- Pseudopotential description ------------------------------------------------
- pspini: atom type   1  psp file is /gpfs/home/acad/ucl-modl/jbouq/paw-sr-11_pbe_standard_xml/Eu.xml
- pspatm: opening atomic psp file    /gpfs/home/acad/ucl-modl/jbouq/paw-sr-11_pbe_standard_xml/Eu.xml
- pspatm : Reading pseudopotential header in XML form from /gpfs/home/acad/ucl-modl/jbouq/paw-sr-11_pbe_standard_xml/Eu.xml
 Pseudopotential format is: paw10
 basis_size (lnmax)=  8 (lmn_size= 32), orbitals=   0   0   1   1   2   2   3   3
 Spheres core radius: rc_sph= 2.52170005
 1 radial meshes are used:
  - mesh 1: r(i)=AA*[exp(BB*(i-1))-1], size=1500 , AA= 0.14034E-03 BB= 0.88415E-02
 Shapefunction is SIN type: shapef(r)=[sin(pi*r/rshp)/(pi*r/rshp)]**2
 Radius for shape functions =  2.30830346
 mmax= 1500
 Radial grid used for partial waves is grid 1
 Radial grid used for projectors is grid 1
 Radial grid used for (t)core density is grid 1
 Radial grid used for Vloc is grid 1
 Radial grid used for pseudo valence density is grid 1
 Mesh size for Vloc has been set to 1343 to avoid numerical noise.
 Compensation charge density is not taken into account in XC energy/potential
 pspatm: atomic psp has been read  and splines computed

- pspini: atom type   2  psp file is /gpfs/home/acad/ucl-modl/jbouq/paw-sr-11_pbe_standard_xml/Sr.xml
- pspatm: opening atomic psp file    /gpfs/home/acad/ucl-modl/jbouq/paw-sr-11_pbe_standard_xml/Sr.xml
- pspatm : Reading pseudopotential header in XML form from /gpfs/home/acad/ucl-modl/jbouq/paw-sr-11_pbe_standard_xml/Sr.xml
 Pseudopotential format is: paw10
 basis_size (lnmax)=  6 (lmn_size= 18), orbitals=   0   0   1   1   2   2
 Spheres core radius: rc_sph= 2.20669967
 1 radial meshes are used:
  - mesh 1: r(i)=AA*[exp(BB*(i-1))-1], size=1500 , AA= 0.22443E-03 BB= 0.85283E-02
 Shapefunction is SIN type: shapef(r)=[sin(pi*r/rshp)/(pi*r/rshp)]**2
 Radius for shape functions =  1.81361893
 mmax= 1500
 Radial grid used for partial waves is grid 1
 Radial grid used for projectors is grid 1
 Radial grid used for (t)core density is grid 1
 Radial grid used for Vloc is grid 1
 Radial grid used for pseudo valence density is grid 1
 Mesh size for Vloc has been set to 1337 to avoid numerical noise.
 Compensation charge density is not taken into account in XC energy/potential
 pspatm: atomic psp has been read  and splines computed

- pspini: atom type   3  psp file is /gpfs/home/acad/ucl-modl/jbouq/paw-sr-11_pbe_standard_xml/Li.xml
- pspatm: opening atomic psp file    /gpfs/home/acad/ucl-modl/jbouq/paw-sr-11_pbe_standard_xml/Li.xml
- pspatm : Reading pseudopotential header in XML form from /gpfs/home/acad/ucl-modl/jbouq/paw-sr-11_pbe_standard_xml/Li.xml
 Pseudopotential format is: paw10
 basis_size (lnmax)=  5 (lmn_size=  9), orbitals=   0   0   0   1   1
 Spheres core radius: rc_sph= 1.60264751
 1 radial meshes are used:
  - mesh 1: r(i)=AA*[exp(BB*(i-1))-1], size=2001 , AA= 0.17851E-02 BB= 0.53552E-02
 Shapefunction is BESSEL type: shapef(r,l)=aa(1,l)*jl(q(1,l)*r)+aa(2,l)*jl(q(2,l)*r)
 Radius for shape functions =  1.30023672
 mmax= 2001
 Radial grid used for partial waves is grid 1
 Radial grid used for projectors is grid 1
 Radial grid used for (t)core density is grid 1
 Radial grid used for Vloc is grid 1
 Radial grid used for pseudo valence density is grid 1
 Mesh size for Vloc has been set to 1742 to avoid numerical noise.
 Compensation charge density is not taken into account in XC energy/potential
 pspatm: atomic psp has been read  and splines computed

- pspini: atom type   4  psp file is /gpfs/home/acad/ucl-modl/jbouq/paw-sr-11_pbe_standard_xml/Al.xml
- pspatm: opening atomic psp file    /gpfs/home/acad/ucl-modl/jbouq/paw-sr-11_pbe_standard_xml/Al.xml
- pspatm : Reading pseudopotential header in XML form from /gpfs/home/acad/ucl-modl/jbouq/paw-sr-11_pbe_standard_xml/Al.xml
 Pseudopotential format is: paw10
 basis_size (lnmax)=  4 (lmn_size=  8), orbitals=   0   0   1   1
 Spheres core radius: rc_sph= 1.90363307
 1 radial meshes are used:
  - mesh 1: r(i)=AA*[exp(BB*(i-1))-1], size=2001 , AA= 0.46377E-03 BB= 0.60291E-02
 Shapefunction is SIN type: shapef(r)=[sin(pi*r/rshp)/(pi*r/rshp)]**2
 Radius for shape functions =  1.60786206
 mmax= 2001
 Radial grid used for partial waves is grid 1
 Radial grid used for projectors is grid 1
 Radial grid used for (t)core density is grid 1
 Radial grid used for Vloc is grid 1
 Radial grid used for pseudo valence density is grid 1
 Mesh size for Vloc has been set to 1771 to avoid numerical noise.
 Compensation charge density is not taken into account in XC energy/potential
 pspatm: atomic psp has been read  and splines computed

- pspini: atom type   5  psp file is /gpfs/home/acad/ucl-modl/jbouq/paw-sr-11_pbe_standard_xml/N.xml
- pspatm: opening atomic psp file    /gpfs/home/acad/ucl-modl/jbouq/paw-sr-11_pbe_standard_xml/N.xml
- pspatm : Reading pseudopotential header in XML form from /gpfs/home/acad/ucl-modl/jbouq/paw-sr-11_pbe_standard_xml/N.xml
 Pseudopotential format is: paw10
 basis_size (lnmax)=  4 (lmn_size=  8), orbitals=   0   0   1   1
 Spheres core radius: rc_sph= 1.20000000
 1 radial meshes are used:
  - mesh 1: r(i)=AA*[exp(BB*(i-1))-1], size= 787 , AA= 0.19344E-02 BB= 0.13541E-01
 Shapefunction is SIN type: shapef(r)=[sin(pi*r/rshp)/(pi*r/rshp)]**2
 Radius for shape functions =  1.00599851
 mmax=  787
 Radial grid used for partial waves is grid 1
 Radial grid used for projectors is grid 1
 Radial grid used for (t)core density is grid 1
 Radial grid used for Vloc is grid 1
 Radial grid used for pseudo valence density is grid 1
 Mesh size for Vloc has been set to  683 to avoid numerical noise.
 Compensation charge density is not taken into account in XC energy/potential
 pspatm: atomic psp has been read  and splines computed

- pspini: atom type   6  psp file is /gpfs/home/acad/ucl-modl/jbouq/paw-sr-11_pbe_standard_xml/O.xml
- pspatm: opening atomic psp file    /gpfs/home/acad/ucl-modl/jbouq/paw-sr-11_pbe_standard_xml/O.xml
- pspatm : Reading pseudopotential header in XML form from /gpfs/home/acad/ucl-modl/jbouq/paw-sr-11_pbe_standard_xml/O.xml
 Pseudopotential format is: paw10
 basis_size (lnmax)=  4 (lmn_size=  8), orbitals=   0   0   1   1
 Spheres core radius: rc_sph= 1.41465230
 1 radial meshes are used:
  - mesh 1: r(i)=AA*[exp(BB*(i-1))-1], size=2001 , AA= 0.72565E-03 BB= 0.58052E-02
 Shapefunction is SIN type: shapef(r)=[sin(pi*r/rshp)/(pi*r/rshp)]**2
 Radius for shape functions =  1.20231231
 mmax= 2001
 Radial grid used for partial waves is grid 1
 Radial grid used for projectors is grid 1
 Radial grid used for (t)core density is grid 1
 Radial grid used for Vloc is grid 1
 Radial grid used for pseudo valence density is grid 1
 Mesh size for Vloc has been set to 1762 to avoid numerical noise.
 Compensation charge density is not taken into account in XC energy/potential
 pspatm: atomic psp has been read  and splines computed

   8.49875662E+04                                ecore*ucvol(ha*bohr**3)
--------------------------------------------------------------------------------

_setup2: Arith. and geom. avg. npw (full set) are     145.000     145.000


 ******************************************
 DFT+U Method used: FLL
 ******************************************

================================================================================

=== [ionmov= 2] Broyden-Fletcher-Goldfard-Shanno method (forces)            
================================================================================

--- Iteration: (   1/1000) Internal Cycle: (1/1)
--------------------------------------------------------------------------------

---SELF-CONSISTENT-FIELD CONVERGENCE--------------------------------------------

--- !BeginCycle
iteration_state: {dtset: 1, itime: 1, icycle: 1, }
solver: {iscf: 17, nstep: 300, nline: 4, wfoptalg: 114, }
tolerances: {toldff: 1.00E-04, }
...

     iter   Etot(hartree)      deltaE(h)  residm     nres2    diffor    maxfor
 ETOT  1  -680.04612592881    -6.800E+02 1.046E-04 8.998E+00 7.734E-03 7.734E-03
 ETOT  2  -680.21185220249    -1.657E-01 2.886E-06 2.310E+01 2.763E-02 1.989E-02
 ETOT  3  -680.04797859410     1.639E-01 3.656E-04 1.591E+00 2.619E-02 6.297E-03
 ETOT  4  -680.05131466030    -3.336E-03 6.863E-05 3.782E-01 3.728E-03 5.396E-03
 ETOT  5  -680.05353660770    -2.222E-03 1.709E-06 3.416E-02 1.507E-03 6.903E-03
 ETOT  6  -680.05383953438    -3.029E-04 8.374E-07 9.380E-03 4.408E-04 6.776E-03
 ETOT  7  -680.05386060108    -2.107E-05 3.163E-07 4.519E-03 1.823E-04 6.729E-03
 ETOT  8  -680.05387450865    -1.391E-05 1.309E-08 1.877E-03 9.626E-05 6.769E-03
 ETOT  9  -680.05388113849    -6.630E-06 6.999E-09 5.993E-04 8.394E-05 6.853E-03

 At SCF step    9, forces are converged : 
  for the second time, max diff in force=  8.394E-05 < toldff=  1.000E-04

 Cartesian components of stress tensor (hartree/bohr^3)
  sigma(1 1)=  8.10730301E-06  sigma(3 2)=  0.00000000E+00
  sigma(2 2)=  2.47838927E-05  sigma(3 1)=  0.00000000E+00
  sigma(3 3)=  2.59274955E-05  sigma(2 1)= -5.95568751E-06


--- !ResultsGS
iteration_state: {dtset: 1, itime: 1, icycle: 1, }
comment   : Summary of ground state results
lattice_vectors:
- [ 14.8520172,   0.0000729,   0.0000000, ]
- [  0.0000729,  14.8514103,   0.0000000, ]
- [  0.0000000,   0.0000000,  18.0845190, ]
lattice_lengths: [  14.85202,   14.85141,   18.08452, ]
lattice_angles: [ 90.000,  90.000,  89.999, ] # degrees, (23, 13, 12)
lattice_volume:   3.9889639E+03
convergence: {deltae: -6.630E-06, res2:  5.993E-04, residm:  6.999E-09, diffor:  8.394E-05, }
etotal    :  -6.80053881E+02
entropy   :   0.00000000E+00
fermie    :   2.88179016E-01
cartesian_stress_tensor: # hartree/bohr^3
- [  8.10730301E-06,  -5.95568751E-06,   0.00000000E+00, ]
- [ -5.95568751E-06,   2.47838927E-05,   0.00000000E+00, ]
- [  0.00000000E+00,   0.00000000E+00,   2.59274955E-05, ]
pressure_GPa:  -5.7684E-01
xred      :
- [  5.0000E-01,   2.9463E-22,   1.6667E-01, Eu]
- [  5.0000E-01,   2.9463E-22,   5.0003E-01, Sr]
- [  5.0000E-01,   2.9463E-22,   8.3330E-01, Sr]
- [ -5.5511E-17,   5.0000E-01,   1.0523E-05, Sr]
- [ -5.5511E-17,   5.0000E-01,   3.3332E-01, Sr]
- [ -5.5511E-17,   5.0000E-01,   6.6667E-01, Sr]
- [  1.2060E-01,   8.2926E-01,   1.6667E-01, Li]
- [  1.2062E-01,   8.2914E-01,   5.0022E-01, Li]
- [  1.2062E-01,   8.2914E-01,   8.3312E-01, Li]
- [  8.7940E-01,   1.7074E-01,   1.6667E-01, Li]
- [  8.7938E-01,   1.7086E-01,   5.0022E-01, Li]
- [  8.7938E-01,   1.7086E-01,   8.3312E-01, Li]
- [  1.7071E-01,   1.2077E-01,  -1.5432E-05, Li]
- [  1.7071E-01,   1.2077E-01,   3.3335E-01, Li]
- [  1.7079E-01,   1.2082E-01,   6.6667E-01, Li]
- [  8.2929E-01,   8.7923E-01,  -1.5432E-05, Li]
- [  8.2929E-01,   8.7923E-01,   3.3335E-01, Li]
- [  8.2921E-01,   8.7918E-01,   6.6667E-01, Li]
- [  3.4950E-01,   6.8400E-01,   4.5979E-05, Al]
- [  3.4950E-01,   6.8400E-01,   3.3329E-01, Al]
- [  3.4966E-01,   6.8409E-01,   6.6667E-01, Al]
- [  6.5050E-01,   3.1600E-01,   4.5979E-05, Al]
- [  6.5050E-01,   3.1600E-01,   3.3329E-01, Al]
- [  6.5034E-01,   3.1591E-01,   6.6667E-01, Al]
- [  3.1605E-01,   3.4948E-01,   1.6667E-01, Al]
- [  3.1595E-01,   3.4980E-01,   5.0016E-01, Al]
- [  3.1595E-01,   3.4980E-01,   8.3317E-01, Al]
- [  6.8395E-01,   6.5052E-01,   1.6667E-01, Al]
- [  6.8405E-01,   6.5020E-01,   5.0016E-01, Al]
- [  6.8405E-01,   6.5020E-01,   8.3317E-01, Al]
- [  5.8360E-01,   7.3526E-01,  -2.0630E-04,  N]
- [  5.8360E-01,   7.3526E-01,   3.3354E-01,  N]
- [  5.8365E-01,   7.3570E-01,   6.6667E-01,  N]
- [  4.1640E-01,   2.6474E-01,  -2.0630E-04,  N]
- [  4.1640E-01,   2.6474E-01,   3.3354E-01,  N]
- [  4.1635E-01,   2.6430E-01,   6.6667E-01,  N]
- [  2.6422E-01,   5.8357E-01,   1.6667E-01,  N]
- [  2.6426E-01,   5.8375E-01,   5.0003E-01,  N]
- [  2.6426E-01,   5.8375E-01,   8.3330E-01,  N]
- [  7.3578E-01,   4.1643E-01,   1.6667E-01,  N]
- [  7.3574E-01,   4.1625E-01,   5.0003E-01,  N]
- [  7.3574E-01,   4.1625E-01,   8.3330E-01,  N]
- [  2.4659E-01,   8.9026E-01,  -2.6668E-04,  O]
- [  2.4659E-01,   8.9026E-01,   3.3360E-01,  O]
- [  2.4745E-01,   8.9058E-01,   6.6667E-01,  O]
- [  7.5341E-01,   1.0974E-01,  -2.6668E-04,  O]
- [  7.5341E-01,   1.0974E-01,   3.3360E-01,  O]
- [  7.5255E-01,   1.0942E-01,   6.6667E-01,  O]
- [  1.0968E-01,   2.4731E-01,   1.6667E-01,  O]
- [  1.0960E-01,   2.4750E-01,   5.0008E-01,  O]
- [  1.0960E-01,   2.4750E-01,   8.3325E-01,  O]
- [  8.9032E-01,   7.5269E-01,   1.6667E-01,  O]
- [  8.9040E-01,   7.5250E-01,   5.0008E-01,  O]
- [  8.9040E-01,   7.5250E-01,   8.3325E-01,  O]
cartesian_forces: # hartree/bohr
- [  8.03112720E-21,  -2.88618634E-20,  -1.60622544E-20, ]
- [  8.03112720E-21,  -2.88618634E-20,   3.55095055E-03, ]
- [  8.03112720E-21,  -2.88618634E-20,  -3.55095055E-03, ]
- [  8.03112720E-21,  -2.88618634E-20,  -5.84210798E-04, ]
- [  8.03112720E-21,  -2.88618634E-20,   5.84210798E-04, ]
- [  8.03112720E-21,  -2.88618634E-20,  -1.60622544E-20, ]
- [ -3.33715891E-04,  -1.17464361E-03,  -1.60622544E-20, ]
- [  1.65585821E-04,  -1.32515699E-04,   1.29814874E-03, ]
- [  1.65585821E-04,  -1.32515699E-04,  -1.29814874E-03, ]
- [  3.33715891E-04,   1.17464361E-03,  -1.60622544E-20, ]
- [ -1.65585821E-04,   1.32515699E-04,   1.29814874E-03, ]
- [ -1.65585821E-04,   1.32515699E-04,  -1.29814874E-03, ]
- [ -8.29641140E-05,   7.38511484E-04,  -1.16080967E-03, ]
- [ -8.29641140E-05,   7.38511484E-04,   1.16080967E-03, ]
- [  1.20447563E-03,  -4.47322748E-04,  -1.60622544E-20, ]
- [  8.29641140E-05,  -7.38511484E-04,  -1.16080967E-03, ]
- [  8.29641140E-05,  -7.38511484E-04,   1.16080967E-03, ]
- [ -1.20447563E-03,   4.47322748E-04,  -1.60622544E-20, ]
- [ -5.08205462E-04,  -1.17133080E-03,  -3.50227505E-04, ]
- [ -5.08205462E-04,  -1.17133080E-03,   3.50227505E-04, ]
- [  2.52005090E-03,   2.85925447E-03,  -1.60622544E-20, ]
- [  5.08205462E-04,   1.17133080E-03,  -3.50227505E-04, ]
- [  5.08205462E-04,   1.17133080E-03,   3.50227505E-04, ]
- [ -2.52005090E-03,  -2.85925447E-03,  -1.60622544E-20, ]
- [ -1.29894272E-04,   2.53828582E-03,  -1.60622544E-20, ]
- [ -1.39133022E-04,  -1.73767571E-03,   4.24748570E-03, ]
- [ -1.39133022E-04,  -1.73767571E-03,  -4.24748570E-03, ]
- [  1.29894272E-04,  -2.53828582E-03,  -1.60622544E-20, ]
- [  1.39133022E-04,   1.73767571E-03,   4.24748570E-03, ]
- [  1.39133022E-04,   1.73767571E-03,  -4.24748570E-03, ]
- [ -2.53208845E-03,   6.20299336E-03,   6.85336934E-03, ]
- [ -2.53208845E-03,   6.20299336E-03,  -6.85336934E-03, ]
- [  3.87889117E-04,  -2.93746397E-03,  -1.60622544E-20, ]
- [  2.53208845E-03,  -6.20299336E-03,   6.85336934E-03, ]
- [  2.53208845E-03,  -6.20299336E-03,  -6.85336934E-03, ]
- [ -3.87889117E-04,   2.93746397E-03,  -1.60622544E-20, ]
- [ -7.62149162E-04,  -1.23903359E-03,  -1.60622544E-20, ]
- [  3.68281854E-04,  -1.24191438E-03,  -3.03167047E-03, ]
- [  3.68281854E-04,  -1.24191438E-03,   3.03167047E-03, ]
- [  7.62149162E-04,   1.23903359E-03,  -1.60622544E-20, ]
- [ -3.68281854E-04,   1.24191438E-03,  -3.03167047E-03, ]
- [ -3.68281854E-04,   1.24191438E-03,   3.03167047E-03, ]
- [  3.60066257E-03,   2.09486227E-03,   6.75413134E-03, ]
- [  3.60066257E-03,   2.09486227E-03,  -6.75413134E-03, ]
- [ -3.39733569E-03,  -2.64641802E-03,  -1.60622544E-20, ]
- [ -3.60066257E-03,  -2.09486227E-03,   6.75413134E-03, ]
- [ -3.60066257E-03,  -2.09486227E-03,  -6.75413134E-03, ]
- [  3.39733569E-03,   2.64641802E-03,  -1.60622544E-20, ]
- [  8.83027823E-04,  -1.44863144E-03,  -1.60622544E-20, ]
- [ -3.23087006E-04,  -1.18914801E-04,  -1.48053024E-03, ]
- [ -3.23087006E-04,  -1.18914801E-04,   1.48053024E-03, ]
- [ -8.83027823E-04,   1.44863144E-03,  -1.60622544E-20, ]
- [  3.23087006E-04,   1.18914801E-04,  -1.48053024E-03, ]
- [  3.23087006E-04,   1.18914801E-04,   1.48053024E-03, ]
force_length_stats: {min:   3.39926783E-20, max:   9.58421983E-03, mean:   3.15946888E-03, }
...

 Integrated electronic and magnetization densities in atomic spheres:
 ---------------------------------------------------------------------
 Radius=ratsph(iatom), smearing ratsm=  0.0000. Diff(up-dn)=approximate z local magnetic moment.
 Atom    Radius    up_density   dn_density  Total(up+dn)  Diff(up-dn)
    1   2.52170    10.430113     4.045292     14.475405     6.384821
    2   2.20670     3.714567     3.665747      7.380314     0.048819
    3   2.20670     3.714567     3.665747      7.380314     0.048819
    4   2.20670     3.684569     3.676954      7.361523     0.007615
    5   2.20670     3.684569     3.676954      7.361523     0.007615
    6   2.20670     3.683219     3.677039      7.360257     0.006180
    7   1.60265     1.066336     1.066080      2.132417     0.000256
    8   1.60265     1.065442     1.065723      2.131165    -0.000281
    9   1.60265     1.065442     1.065723      2.131165    -0.000281
   10   1.60265     1.066336     1.066080      2.132417     0.000256
   11   1.60265     1.065442     1.065723      2.131165    -0.000281
   12   1.60265     1.065442     1.065723      2.131165    -0.000281
   13   1.60265     1.065996     1.065857      2.131853     0.000139
   14   1.60265     1.065996     1.065857      2.131853     0.000139
   15   1.60265     1.065785     1.065821      2.131607    -0.000036
   16   1.60265     1.065996     1.065857      2.131853     0.000139
   17   1.60265     1.065996     1.065857      2.131853     0.000139
   18   1.60265     1.065785     1.065821      2.131607    -0.000036
   19   1.90363     0.468648     0.466064      0.934711     0.002584
   20   1.90363     0.468648     0.466064      0.934711     0.002584
   21   1.90363     0.467789     0.466376      0.934165     0.001413
   22   1.90363     0.468648     0.466064      0.934711     0.002584
   23   1.90363     0.468648     0.466064      0.934711     0.002584
   24   1.90363     0.467789     0.466376      0.934165     0.001413
   25   1.90363     0.469195     0.466827      0.936022     0.002369
   26   1.90363     0.467783     0.466644      0.934427     0.001140
   27   1.90363     0.467783     0.466644      0.934427     0.001140
   28   1.90363     0.469195     0.466827      0.936022     0.002369
   29   1.90363     0.467783     0.466644      0.934427     0.001140
   30   1.90363     0.467783     0.466644      0.934427     0.001140
   31   1.20000     1.225647     1.239256      2.464903    -0.013609
   32   1.20000     1.225647     1.239256      2.464903    -0.013609
   33   1.20000     1.236803     1.238279      2.475082    -0.001477
   34   1.20000     1.225647     1.239256      2.464903    -0.013609
   35   1.20000     1.225647     1.239256      2.464903    -0.013609
   36   1.20000     1.236803     1.238279      2.475082    -0.001477
   37   1.20000     1.242644     1.242830      2.485474    -0.000186
   38   1.20000     1.233939     1.237640      2.471579    -0.003701
   39   1.20000     1.233939     1.237640      2.471579    -0.003701
   40   1.20000     1.242644     1.242830      2.485474    -0.000186
   41   1.20000     1.233939     1.237640      2.471579    -0.003701
   42   1.20000     1.233939     1.237640      2.471579    -0.003701
   43   1.41465     2.298387     2.312276      4.610663    -0.013889
   44   1.41465     2.298387     2.312276      4.610663    -0.013889
   45   1.41465     2.305854     2.305905      4.611759    -0.000050
   46   1.41465     2.298387     2.312276      4.610663    -0.013889
   47   1.41465     2.298387     2.312276      4.610663    -0.013889
   48   1.41465     2.305854     2.305905      4.611759    -0.000050
   49   1.41465     2.304023     2.303916      4.607939     0.000106
   50   1.41465     2.303712     2.303369      4.607082     0.000343
   51   1.41465     2.303712     2.303369      4.607082     0.000343
   52   1.41465     2.304023     2.303916      4.607939     0.000106
   53   1.41465     2.303712     2.303369      4.607082     0.000343
   54   1.41465     2.303712     2.303369      4.607082     0.000343
 ---------------------------------------------------------------------
  Sum:             89.746682    83.347119    173.093801     6.399562
 Total magnetization (from the atomic spheres):             6.399562
 Total magnetization (exact up - dn):                       7.000010

 PAW TEST:
 ==== Compensation charge inside spheres ============
 The following values must be close to each other ...
 Compensation charge over spherical meshes =     20.585442858911001
 Compensation charge over fine fft grid    =     20.582684933638685

 ==== Results concerning PAW augmentation regions ====

 Total pseudopotential strength Dij (hartree):
 Atom #  1 - Spin component 1
  -0.68780  -0.08638   0.00000   0.00000   0.00000   0.00000   0.00000   0.00000   0.00004   0.00000   0.00001   0.00000 ...
  -0.08638  -0.09121   0.00000   0.00000   0.00000   0.00000   0.00000   0.00000   0.00002   0.00000   0.00014   0.00000 ...
   0.00000   0.00000  -0.74964   0.00000   0.00020   0.20668   0.00000  -0.00037   0.00000   0.00000   0.00000   0.00000 ...
   0.00000   0.00000   0.00000  -0.74857   0.00000   0.00000   0.20456   0.00000   0.00000   0.00000   0.00000   0.00000 ...
   0.00000   0.00000   0.00020   0.00000  -0.74989  -0.00037   0.00000   0.20716   0.00000   0.00000   0.00000   0.00000 ...
   0.00000   0.00000   0.20668   0.00000  -0.00037   0.82354   0.00000   0.00033   0.00000   0.00000   0.00000   0.00000 ...
   0.00000   0.00000   0.00000   0.20456   0.00000   0.00000   0.82541   0.00000   0.00000   0.00000   0.00000   0.00000 ...
   0.00000   0.00000  -0.00037   0.00000   0.20716   0.00033   0.00000   0.82310   0.00000   0.00000   0.00000   0.00000 ...
   0.00004   0.00002   0.00000   0.00000   0.00000   0.00000   0.00000   0.00000  -0.19489   0.00000  -0.00005   0.00000 ...
   0.00000   0.00000   0.00000   0.00000   0.00000   0.00000   0.00000   0.00000   0.00000  -0.19495   0.00000   0.00000 ...
   0.00001   0.00014   0.00000   0.00000   0.00000   0.00000   0.00000   0.00000  -0.00005   0.00000  -0.19433   0.00000 ...
   0.00000   0.00000   0.00000   0.00000   0.00000   0.00000   0.00000   0.00000   0.00000   0.00000   0.00000  -0.19496 ...
   ...  only 12  components have been written...
 Atom #  1 - Spin component 2
  -0.61793  -0.07863   0.00000   0.00000   0.00000   0.00000   0.00000   0.00000   0.00007   0.00000  -0.00024   0.00000 ...
  -0.07863  -0.09052   0.00000   0.00000   0.00000   0.00000   0.00000   0.00000   0.00002   0.00000   0.00003   0.00000 ...
   0.00000   0.00000  -0.69171   0.00000   0.00034   0.14319   0.00000  -0.00063   0.00000   0.00000   0.00000   0.00000 ...
   0.00000   0.00000   0.00000  -0.69034   0.00000   0.00000   0.13962   0.00000   0.00000   0.00000   0.00000   0.00000 ...
   0.00000   0.00000   0.00034   0.00000  -0.69168  -0.00063   0.00000   0.14400   0.00000   0.00000   0.00000   0.00000 ...
   0.00000   0.00000   0.14319   0.00000  -0.00063   0.88721   0.00000   0.00047   0.00000   0.00000   0.00000   0.00000 ...
   0.00000   0.00000   0.00000   0.13962   0.00000   0.00000   0.88901   0.00000   0.00000   0.00000   0.00000   0.00000 ...
   0.00000   0.00000  -0.00063   0.00000   0.14400   0.00047   0.00000   0.88711   0.00000   0.00000   0.00000   0.00000 ...
   0.00007   0.00002   0.00000   0.00000   0.00000   0.00000   0.00000   0.00000  -0.18187   0.00000  -0.00005   0.00000 ...
   0.00000   0.00000   0.00000   0.00000   0.00000   0.00000   0.00000   0.00000   0.00000  -0.18286   0.00000   0.00005 ...
  -0.00024   0.00003   0.00000   0.00000   0.00000   0.00000   0.00000   0.00000  -0.00005   0.00000  -0.18086   0.00000 ...
   0.00000   0.00000   0.00000   0.00000   0.00000   0.00000   0.00000   0.00000   0.00000   0.00005   0.00000  -0.18278 ...
   ...  only 12  components have been written...
 Atom # 54 - Spin component 1
   0.61918  -1.77476   0.00028  -0.00001   0.00063  -0.00201   0.00009  -0.00445
  -1.77476   5.14882  -0.00076   0.00003  -0.00169   0.00546  -0.00025   0.01204
   0.00028  -0.00076  -0.30732  -0.00000  -0.00031   0.95949   0.00002   0.00162
  -0.00001   0.00003  -0.00000  -0.30707   0.00000   0.00002   0.95809  -0.00003
   0.00063  -0.00169  -0.00031   0.00000  -0.30772   0.00162  -0.00003   0.96148
  -0.00201   0.00546   0.95949   0.00002   0.00162  -0.25361  -0.00010  -0.00812
   0.00009  -0.00025   0.00002   0.95809  -0.00003  -0.00010  -0.24620   0.00015
  -0.00445   0.01204   0.00162  -0.00003   0.96148  -0.00812   0.00015  -0.26326
 Atom # 54 - Spin component 2
   0.61917  -1.77474   0.00028  -0.00001   0.00062  -0.00201   0.00009  -0.00441
  -1.77474   5.14875  -0.00076   0.00004  -0.00167   0.00545  -0.00026   0.01195
   0.00028  -0.00076  -0.30733  -0.00000  -0.00030   0.95954   0.00002   0.00155
  -0.00001   0.00004  -0.00000  -0.30706   0.00000   0.00002   0.95807  -0.00002
   0.00062  -0.00167  -0.00030   0.00000  -0.30768   0.00155  -0.00002   0.96131
  -0.00201   0.00545   0.95954   0.00002   0.00155  -0.25387  -0.00011  -0.00775
   0.00009  -0.00026   0.00002   0.95807  -0.00002  -0.00011  -0.24609   0.00013
  -0.00441   0.01195   0.00155  -0.00002   0.96131  -0.00775   0.00013  -0.26240


 Augmentation waves occupancies Rhoij:
 Atom #  1 - Spin component 1
   1.04614  -0.10974   0.00000   0.00000   0.00000   0.00000   0.00000   0.00000   0.00208   0.00000  -0.01925   0.00000 ...
  -0.10974   0.16172   0.00000   0.00000   0.00000   0.00000   0.00000   0.00000  -0.00721   0.00000   0.03507   0.00000 ...
   0.00000   0.00000   1.00845   0.00000  -0.00017  -0.00892   0.00000   0.00024   0.00000   0.00000   0.00000   0.00000 ...
   0.00000   0.00000   0.00000   1.00572   0.00000   0.00000  -0.00681   0.00000   0.00000   0.00000   0.00000   0.00000 ...
   0.00000   0.00000  -0.00017   0.00000   1.00763   0.00024   0.00000  -0.00779   0.00000   0.00000   0.00000   0.00000 ...
   0.00000   0.00000  -0.00892   0.00000   0.00024   0.00629   0.00000  -0.00020   0.00000   0.00000   0.00000   0.00000 ...
   0.00000   0.00000   0.00000  -0.00681   0.00000   0.00000   0.00540   0.00000   0.00000   0.00000   0.00000   0.00000 ...
   0.00000   0.00000   0.00024   0.00000  -0.00779  -0.00020   0.00000   0.00476   0.00000   0.00000   0.00000   0.00000 ...
   0.00208  -0.00721   0.00000   0.00000   0.00000   0.00000   0.00000   0.00000   0.05724   0.00000  -0.03515   0.00000 ...
   0.00000   0.00000   0.00000   0.00000   0.00000   0.00000   0.00000   0.00000   0.00000   0.10028   0.00000  -0.00917 ...
  -0.01925   0.03507   0.00000   0.00000   0.00000   0.00000   0.00000   0.00000  -0.03515   0.00000   0.54278   0.00000 ...
   0.00000   0.00000   0.00000   0.00000   0.00000   0.00000   0.00000   0.00000   0.00000  -0.00917   0.00000   0.07727 ...
   ...  only 12  components have been written...
 Atom #  1 - Spin component 2
   0.98721   0.02123   0.00000   0.00000   0.00000   0.00000   0.00000   0.00000  -0.00014   0.00000  -0.00821   0.00000 ...
   0.02123   0.11830   0.00000   0.00000   0.00000   0.00000   0.00000   0.00000  -0.00376   0.00000  -0.00052   0.00000 ...
   0.00000   0.00000   1.00092   0.00000  -0.00008   0.01106   0.00000   0.00010   0.00000   0.00000   0.00000   0.00000 ...
   0.00000   0.00000   0.00000   0.99921   0.00000   0.00000   0.01115   0.00000   0.00000   0.00000   0.00000   0.00000 ...
   0.00000   0.00000  -0.00008   0.00000   0.99960   0.00009   0.00000   0.01291   0.00000   0.00000   0.00000   0.00000 ...
   0.00000   0.00000   0.01106   0.00000   0.00009   0.00518   0.00000  -0.00016   0.00000   0.00000   0.00000   0.00000 ...
   0.00000   0.00000   0.00000   0.01115   0.00000   0.00000   0.00437   0.00000   0.00000   0.00000   0.00000   0.00000 ...
   0.00000   0.00000   0.00010   0.00000   0.01291  -0.00016   0.00000   0.00404   0.00000   0.00000   0.00000   0.00000 ...
  -0.00014  -0.00376   0.00000   0.00000   0.00000   0.00000   0.00000   0.00000   0.03716   0.00000  -0.00056   0.00000 ...
   0.00000   0.00000   0.00000   0.00000   0.00000   0.00000   0.00000   0.00000   0.00000   0.07177   0.00000  -0.00595 ...
  -0.00821  -0.00052   0.00000   0.00000   0.00000   0.00000   0.00000   0.00000  -0.00056   0.00000   0.01364   0.00000 ...
   0.00000   0.00000   0.00000   0.00000   0.00000   0.00000   0.00000   0.00000   0.00000  -0.00595   0.00000   0.05462 ...
   ...  only 12  components have been written...
 Atom # 54 - Spin component 1
   1.00670   0.01625   0.00044  -0.00059  -0.00245  -0.00047  -0.00002  -0.00124
   0.01625   0.00044  -0.00202   0.00011  -0.00519  -0.00013   0.00001  -0.00030
   0.00044  -0.00202   1.09852  -0.00030   0.01040   0.05155   0.00001   0.00160
  -0.00059   0.00011  -0.00030   1.12023   0.00046  -0.00000   0.05189   0.00001
  -0.00245  -0.00519   0.01040   0.00046   1.13343   0.00155   0.00001   0.05463
  -0.00047  -0.00013   0.05155  -0.00000   0.00155   0.00244   0.00000   0.00013
  -0.00002   0.00001   0.00001   0.05189   0.00001   0.00000   0.00242  -0.00000
  -0.00124  -0.00030   0.00160   0.00001   0.05463   0.00013  -0.00000   0.00267
 Atom # 54 - Spin component 2
   1.00663   0.01627   0.00050  -0.00054  -0.00205  -0.00047  -0.00002  -0.00123
   0.01627   0.00043  -0.00202   0.00011  -0.00529  -0.00013   0.00000  -0.00030
   0.00050  -0.00202   1.09968  -0.00025   0.00951   0.05159   0.00000   0.00157
  -0.00054   0.00011  -0.00025   1.12043   0.00045  -0.00000   0.05190   0.00000
  -0.00205  -0.00529   0.00951   0.00045   1.13197   0.00153   0.00000   0.05462
  -0.00047  -0.00013   0.05159  -0.00000   0.00153   0.00244   0.00000   0.00013
  -0.00002   0.00000   0.00000   0.05190   0.00000   0.00000   0.00242  -0.00000
  -0.00123  -0.00030   0.00157   0.00000   0.05462   0.00013  -0.00000   0.00267

 "PAW+U" part of augmentation waves occupancies Rhoij:
 Atom #  1 - L=3 ONLY - Spin component 1
   1.00644   0.00000   0.00025   0.00000   0.00478   0.00000   0.00031   0.00381   0.00000   0.00002   0.00000   0.00179   0.00000   0.00007
   0.00000   0.63467   0.00000  -0.00668   0.00000  -0.39566   0.00000   0.00000   0.01565   0.00000   0.00109   0.00000   0.01664   0.00000
   0.00025   0.00000   1.00653   0.00000  -0.00032   0.00000   0.00429   0.00008   0.00000   0.00454   0.00000  -0.00012   0.00000   0.00158
   0.00000  -0.00668   0.00000   1.01677   0.00000  -0.00435   0.00000   0.00000   0.00000   0.00000   0.00728   0.00000   0.00171   0.00000
   0.00478   0.00000  -0.00032   0.00000   1.00385   0.00000   0.00307   0.00179   0.00000  -0.00018   0.00000   0.00293   0.00000   0.00110
   0.00000  -0.39566   0.00000  -0.00435   0.00000   0.55963   0.00000   0.00000   0.01722   0.00000   0.00289   0.00000   0.01820   0.00000
   0.00031   0.00000   0.00429   0.00000   0.00307   0.00000   1.00898   0.00001   0.00000   0.00156   0.00000   0.00108   0.00000   0.00478
   0.00381   0.00000   0.00008   0.00000   0.00179   0.00000   0.00001   0.00295   0.00000  -0.00004   0.00000   0.00028   0.00000  -0.00014
   0.00000   0.01565   0.00000   0.00000   0.00000   0.01722   0.00000   0.00000   0.00435   0.00000  -0.00015   0.00000   0.00190   0.00000
   0.00002   0.00000   0.00454   0.00000  -0.00018   0.00000   0.00156  -0.00004   0.00000   0.00365   0.00000  -0.00003   0.00000   0.00024
   0.00000   0.00109   0.00000   0.00728   0.00000   0.00289   0.00000   0.00000  -0.00015   0.00000   0.00278   0.00000   0.00072   0.00000
   0.00179   0.00000  -0.00012   0.00000   0.00293   0.00000   0.00108   0.00028   0.00000  -0.00003   0.00000   0.00285   0.00000   0.00003
   0.00000   0.01664   0.00000   0.00171   0.00000   0.01820   0.00000   0.00000   0.00190   0.00000   0.00072   0.00000   0.00503   0.00000
   0.00007   0.00000   0.00158   0.00000   0.00110   0.00000   0.00478  -0.00014   0.00000   0.00024   0.00000   0.00003   0.00000   0.00297
 Atom #  1 - L=3 ONLY - Spin component 2
   0.01474   0.00000  -0.00053   0.00000   0.00231   0.00000  -0.00059   0.00577   0.00000  -0.00018   0.00000   0.00080   0.00000  -0.00025
   0.00000   0.03408   0.00000   0.00045   0.00000   0.02373   0.00000   0.00000   0.01214   0.00000   0.00009   0.00000   0.00784   0.00000
  -0.00053   0.00000   0.01769   0.00000  -0.00047   0.00000   0.00240  -0.00020   0.00000   0.00688   0.00000  -0.00013   0.00000   0.00078
   0.00000   0.00045   0.00000   0.01403   0.00000   0.00454   0.00000   0.00000   0.00002   0.00000   0.00561   0.00000   0.00168   0.00000
   0.00231   0.00000  -0.00047   0.00000   0.01352   0.00000  -0.00033   0.00080   0.00000  -0.00012   0.00000   0.00529   0.00000  -0.00005
   0.00000   0.02373   0.00000   0.00454   0.00000   0.03972   0.00000   0.00000   0.00790   0.00000   0.00179   0.00000   0.01416   0.00000
  -0.00059   0.00000   0.00240   0.00000  -0.00033   0.00000   0.01432  -0.00024   0.00000   0.00078   0.00000  -0.00006   0.00000   0.00569
   0.00577   0.00000  -0.00020   0.00000   0.00080   0.00000  -0.00024   0.00227   0.00000  -0.00007   0.00000   0.00028   0.00000  -0.00010
   0.00000   0.01214   0.00000   0.00002   0.00000   0.00790   0.00000   0.00000   0.00438   0.00000  -0.00002   0.00000   0.00263   0.00000
  -0.00018   0.00000   0.00688   0.00000  -0.00012   0.00000   0.00078  -0.00007   0.00000   0.00269   0.00000  -0.00002   0.00000   0.00025
   0.00000   0.00009   0.00000   0.00561   0.00000   0.00179   0.00000   0.00000  -0.00002   0.00000   0.00226   0.00000   0.00067   0.00000
   0.00080   0.00000  -0.00013   0.00000   0.00529   0.00000  -0.00006   0.00028   0.00000  -0.00002   0.00000   0.00208   0.00000   0.00001
   0.00000   0.00784   0.00000   0.00168   0.00000   0.01416   0.00000   0.00000   0.00263   0.00000   0.00067   0.00000   0.00512   0.00000
  -0.00025   0.00000   0.00078   0.00000  -0.00005   0.00000   0.00569  -0.00010   0.00000   0.00025   0.00000   0.00001   0.00000   0.00227

 ---------- DFT+U DATA --------------------------------------------------- 

 ====== For Atom     1, occupations for correlated orbitals. lpawu =   3

 Atom   1. Occ. for lpawu and for spin  1 =   6.04824
 Atom   1. Occ. for lpawu and for spin  2 =   0.03216
 => On atom   1,  local Mag. for lpawu is       -6.016086

 == Occupation matrix for correlated orbitals:

 Occupation matrix for spin  1
     0.99048    0.00000   -0.00004    0.00000   -0.00024    0.00000   -0.00026
     0.00000    0.58927    0.00000   -0.00888    0.00000   -0.43983    0.00000
    -0.00004    0.00000    0.99039    0.00000    0.00008    0.00000   -0.00013
     0.00000   -0.00888    0.00000    0.98876    0.00000   -0.00949    0.00000
    -0.00024    0.00000    0.00008    0.00000    0.99047    0.00000   -0.00044
     0.00000   -0.43983    0.00000   -0.00949    0.00000    0.50903    0.00000
    -0.00026    0.00000   -0.00013    0.00000   -0.00044    0.00000    0.98986


 Occupation matrix for spin  2
     0.00296    0.00000   -0.00013    0.00000    0.00055    0.00000   -0.00011
     0.00000    0.00799    0.00000    0.00020    0.00000    0.00611    0.00000
    -0.00013    0.00000    0.00359    0.00000   -0.00014    0.00000    0.00061
     0.00000    0.00020    0.00000    0.00277    0.00000    0.00096    0.00000
     0.00055    0.00000   -0.00014    0.00000    0.00271    0.00000   -0.00012
     0.00000    0.00611    0.00000    0.00096    0.00000    0.00932    0.00000
    -0.00011    0.00000    0.00061    0.00000   -0.00012    0.00000    0.00282




---OUTPUT-----------------------------------------------------------------------

 Cartesian coordinates (xcart) [bohr]
  7.42600858495000E+00  3.64395350535000E-05  3.01408650593615E+00
  7.42600858495000E+00  3.64395350535000E-05  9.04282832837711E+00
  7.42600858495000E+00  3.64395350535000E-05  1.50698637154952E+01
  3.64395350521755E-05  7.42570515545000E+00  1.90297959936524E-04
  3.64395350521755E-05  7.42570515545000E+00  6.02798271391236E+00
  3.64395350521755E-05  7.42570515545000E+00  1.20563460219362E+01
  1.79120458424716E+00  1.23156828818382E+01  3.01408650593615E+00
  1.79149417539871E+00  1.23138338009928E+01  9.04616899838911E+00
  1.79149417539871E+00  1.23138338009928E+01  1.50665230454832E+01
  1.30608854647229E+01  2.53580030813190E+00  3.01408650593615E+00
  1.30605958735714E+01  2.53764938897729E+00  9.04616899838911E+00
  1.30605958735714E+01  2.53764938897729E+00  1.50665230454832E+01
  2.53532715145866E+00  1.79367417618186E+00 -2.79085806209711E-04
  2.53532715145866E+00  1.79367417618186E+00  6.02845209767851E+00
  2.53665418570449E+00  1.79439583499774E+00  1.20563460219362E+01
  1.23167628975114E+01  1.30578090137882E+01 -2.79085806209711E-04
  1.23167628975114E+01  1.30578090137882E+01  6.02845209767851E+00
  1.23154358632656E+01  1.30570873549724E+01  1.20563460219362E+01
  5.19086585422673E+00  1.01583499198144E+01  8.31506477495475E-04
  5.19086585422673E+00  1.01583499198144E+01  6.02734150539480E+00
  5.19319484301943E+00  1.01597458836144E+01  1.20563460219362E+01
  9.66122419474337E+00  4.69313327015568E+00  8.31506477495475E-04
  9.66122419474337E+00  4.69313327015568E+00  6.02734150539480E+00
  9.65889520595068E+00  4.69173730635573E+00  1.20563460219362E+01
  4.69404741175223E+00  5.19030716694310E+00  3.01408650593615E+00
  4.69245999761581E+00  5.19497904749264E+00  9.04513288927401E+00
  4.69245999761581E+00  5.19497904749264E+00  1.50675591545983E+01
  1.01580426372179E+01  9.66117602302701E+00  3.01408650593615E+00
  1.01596300513543E+01  9.65650414247747E+00  9.04513288927401E+00
  1.01596300513543E+01  9.65650414247747E+00  1.50675591545983E+01
  8.66772715434871E+00  1.09197114997673E+01 -3.73080517481720E-03
  8.66772715434871E+00  1.09197114997673E+01  6.03190381704712E+00
  8.66843549974667E+00  1.09262134194892E+01  1.20563460219362E+01
  6.18436289462140E+00  3.93177169020280E+00 -3.73080517481720E-03
  6.18436289462140E+00  3.93177169020280E+00  6.03190381704712E+00
  6.18365454922344E+00  3.92526977048094E+00  1.20563460219362E+01
  3.92419659431196E+00  8.66679211539974E+00  3.01408650593615E+00
  3.92476498285786E+00  8.66959012389133E+00  9.04285595790529E+00
  3.92476498285786E+00  8.66959012389133E+00  1.50698360859670E+01
  1.09278934546581E+01  6.18469107457037E+00  3.01408650593615E+00
  1.09273250661122E+01  6.18189306607877E+00  9.04285595790529E+00
  1.09273250661122E+01  6.18189306607877E+00  1.50698360859670E+01
  3.66242620251318E+00  1.32215845069747E+01 -4.82272514825150E-03
  3.66242620251318E+00  1.32215845069747E+01  6.03299573702055E+00
  3.67522736533656E+00  1.32263886044930E+01  1.20563460219362E+01
  1.11896638464569E+01  1.62989868299536E+00 -4.82272514825150E-03
  1.11896638464569E+01  1.62989868299536E+00  6.03299573702055E+00
  1.11768626836335E+01  1.62509458547706E+00  1.20563460219362E+01
  1.62899261632211E+00  3.67285078709706E+00  3.01408650593615E+00
  1.62774928914758E+00  3.67568302959529E+00  9.04375878049821E+00
  1.62774928914758E+00  3.67568302959529E+00  1.50689332633741E+01
  1.32230974326480E+01  1.11786324028731E+01  3.01408650593615E+00
  1.32243407598225E+01  1.11758001603748E+01  9.04375878049821E+00
  1.32243407598225E+01  1.11758001603748E+01  1.50689332633741E+01
 Reduced coordinates (xred)
  5.00000000000000E-01  2.94632053246432E-22  1.66666666700000E-01
  5.00000000000000E-01  2.94632053246432E-22  5.00031453000000E-01
  5.00000000000000E-01  2.94632053246432E-22  8.33301880400000E-01
 -5.55111512312578E-17  5.00000000000000E-01  1.05226995310076E-05
 -5.55111512312578E-17  5.00000000000000E-01  3.33322810700469E-01
 -5.55111512312578E-17  5.00000000000000E-01  6.66666666700000E-01
  1.20599385800000E-01  8.29259567600000E-01  1.66666666700000E-01
  1.20618884850000E-01  8.29135062100000E-01  5.00216178400000E-01
  1.20618884850000E-01  8.29135062100000E-01  8.33117155000000E-01
  8.79400614200000E-01  1.70740432400000E-01  1.66666666700000E-01
  8.79381115150000E-01  1.70864937900000E-01  5.00216178400000E-01
  8.79381115150000E-01  1.70864937900000E-01  8.33117155000000E-01
  1.70705320400000E-01  1.20773832100000E-01 -1.54323045979756E-05
  1.70705320400000E-01  1.20773832100000E-01  3.33348765704598E-01
  1.70794670600000E-01  1.20822423600000E-01  6.66666666700000E-01
  8.29294679600000E-01  8.79226167900000E-01 -1.54323045979756E-05
  8.29294679600000E-01  8.79226167900000E-01  3.33348765704598E-01
  8.29205329400000E-01  8.79177576400000E-01  6.66666666700000E-01
  3.49502424200000E-01  6.83997292900000E-01  4.59789102504828E-05
  3.49502424200000E-01  6.83997292900000E-01  3.33287354489749E-01
  3.49659236700000E-01  6.84091287500000E-01  6.66666666700000E-01
  6.50497575800000E-01  3.16002707100000E-01  4.59789102504828E-05
  6.50497575800000E-01  3.16002707100000E-01  3.33287354489749E-01
  6.50340763300000E-01  3.15908712500000E-01  6.66666666700000E-01
  3.16052822200000E-01  3.49480892700000E-01  1.66666666700000E-01
  3.15945938600000E-01  3.49795468100000E-01  5.00158885800000E-01
  3.15945938600000E-01  3.49795468100000E-01  8.33174447600000E-01
  6.83947177800000E-01  6.50519107300000E-01  1.66666666700000E-01
  6.84054061400000E-01  6.50204531900000E-01  5.00158885800000E-01
  6.84054061400000E-01  6.50204531900000E-01  8.33174447600000E-01
  5.83602447400000E-01  7.35261415500000E-01 -2.06298280215009E-04
  5.83602447400000E-01  7.35261415500000E-01  3.33539631680215E-01
  5.83650138800000E-01  7.35699213400000E-01  6.66666666700000E-01
  4.16397552600000E-01  2.64738584500000E-01 -2.06298280215009E-04
  4.16397552600000E-01  2.64738584500000E-01  3.33539631680215E-01
  4.16349861200000E-01  2.64300786600000E-01  6.66666666700000E-01
  2.64216908700000E-01  5.83565646500000E-01  1.66666666700000E-01
  2.64255177900000E-01  5.83754046500000E-01  5.00032980800000E-01
  2.64255177900000E-01  5.83754046500000E-01  8.33300352600000E-01
  7.35783091300000E-01  4.16434353500000E-01  1.66666666700000E-01
  7.35744822100000E-01  4.16245953500000E-01  5.00032980800000E-01
  7.35744822100000E-01  4.16245953500000E-01  8.33300352600000E-01
  2.46590162100000E-01  8.90256632800000E-01 -2.66676992609969E-04
  2.46590162100000E-01  8.90256632800000E-01  3.33600010392610E-01
  2.47452074600000E-01  8.90580106100000E-01  6.66666666700000E-01
  7.53409837900000E-01  1.09743367200000E-01 -2.66676992609969E-04
  7.53409837900000E-01  1.09743367200000E-01  3.33600010392610E-01
  7.52547925400000E-01  1.09419893900000E-01  6.66666666700000E-01
  1.09680360200000E-01  2.47305994300000E-01  1.66666666700000E-01
  1.09596644900000E-01  2.47496700000000E-01  5.00082903200000E-01
  1.09596644900000E-01  2.47496700000000E-01  8.33250430200000E-01
  8.90319639800000E-01  7.52694005700000E-01  1.66666666700000E-01
  8.90403355100000E-01  7.52503300000000E-01  5.00082903200000E-01
  8.90403355100000E-01  7.52503300000000E-01  8.33250430200000E-01
 Cartesian forces (fcart) [Ha/bohr]; max,rms= 6.85337E-03 2.37876E-03 (free atoms)
  8.03112720359633E-21 -2.88618633879243E-20 -1.60622544071927E-20
  8.03112720359633E-21 -2.88618633879243E-20  3.55095054619400E-03
  8.03112720359633E-21 -2.88618633879243E-20 -3.55095054619400E-03
  8.03112720359633E-21 -2.88618633879243E-20 -5.84210797859419E-04
  8.03112720359633E-21 -2.88618633879243E-20  5.84210797859419E-04
  8.03112720359633E-21 -2.88618633879243E-20 -1.60622544071927E-20
 -3.33715891396483E-04 -1.17464361484935E-03 -1.60622544071927E-20
  1.65585821303149E-04 -1.32515699016701E-04  1.29814874319016E-03
  1.65585821303149E-04 -1.32515699016701E-04 -1.29814874319016E-03
  3.33715891396483E-04  1.17464361484935E-03 -1.60622544071927E-20
 -1.65585821303149E-04  1.32515699016701E-04  1.29814874319016E-03
 -1.65585821303149E-04  1.32515699016701E-04 -1.29814874319016E-03
 -8.29641140066365E-05  7.38511484377950E-04 -1.16080966858964E-03
 -8.29641140066365E-05  7.38511484377950E-04  1.16080966858964E-03
  1.20447563029591E-03 -4.47322747574657E-04 -1.60622544071927E-20
  8.29641140066365E-05 -7.38511484377950E-04 -1.16080966858964E-03
  8.29641140066365E-05 -7.38511484377950E-04  1.16080966858964E-03
 -1.20447563029591E-03  4.47322747574657E-04 -1.60622544071927E-20
 -5.08205462011503E-04 -1.17133079679009E-03 -3.50227504554717E-04
 -5.08205462011503E-04 -1.17133079679009E-03  3.50227504554717E-04
  2.52005090120873E-03  2.85925446701813E-03 -1.60622544071927E-20
  5.08205462011503E-04  1.17133079679009E-03 -3.50227504554717E-04
  5.08205462011503E-04  1.17133079679009E-03  3.50227504554717E-04
 -2.52005090120873E-03 -2.85925446701813E-03 -1.60622544071927E-20
 -1.29894271763158E-04  2.53828581637899E-03 -1.60622544071927E-20
 -1.39133022260422E-04 -1.73767570806028E-03  4.24748569771260E-03
 -1.39133022260422E-04 -1.73767570806028E-03 -4.24748569771260E-03
  1.29894271763158E-04 -2.53828581637899E-03 -1.60622544071927E-20
  1.39133022260422E-04  1.73767570806028E-03  4.24748569771260E-03
  1.39133022260422E-04  1.73767570806028E-03 -4.24748569771260E-03
 -2.53208845145119E-03  6.20299335517729E-03  6.85336933729957E-03
 -2.53208845145119E-03  6.20299335517729E-03 -6.85336933729957E-03
  3.87889116982652E-04 -2.93746396584655E-03 -1.60622544071927E-20
  2.53208845145119E-03 -6.20299335517729E-03  6.85336933729957E-03
  2.53208845145119E-03 -6.20299335517729E-03 -6.85336933729957E-03
 -3.87889116982652E-04  2.93746396584655E-03 -1.60622544071927E-20
 -7.62149162322613E-04 -1.23903359026922E-03 -1.60622544071927E-20
  3.68281854401893E-04 -1.24191438044255E-03 -3.03167046659570E-03
  3.68281854401893E-04 -1.24191438044255E-03  3.03167046659570E-03
  7.62149162322613E-04  1.23903359026922E-03 -1.60622544071927E-20
 -3.68281854401893E-04  1.24191438044255E-03 -3.03167046659570E-03
 -3.68281854401893E-04  1.24191438044255E-03  3.03167046659570E-03
  3.60066256891223E-03  2.09486226646347E-03  6.75413134183473E-03
  3.60066256891223E-03  2.09486226646347E-03 -6.75413134183473E-03
 -3.39733569321623E-03 -2.64641802445620E-03 -1.60622544071927E-20
 -3.60066256891223E-03 -2.09486226646347E-03  6.75413134183473E-03
 -3.60066256891223E-03 -2.09486226646347E-03 -6.75413134183473E-03
  3.39733569321623E-03  2.64641802445620E-03 -1.60622544071927E-20
  8.83027823494417E-04 -1.44863143590120E-03 -1.60622544071927E-20
 -3.23087006106468E-04 -1.18914800683804E-04 -1.48053024420328E-03
 -3.23087006106468E-04 -1.18914800683804E-04  1.48053024420328E-03
 -8.83027823494417E-04  1.44863143590120E-03 -1.60622544071927E-20
  3.23087006106468E-04  1.18914800683803E-04 -1.48053024420328E-03
  3.23087006106468E-04  1.18914800683803E-04  1.48053024420328E-03
 Gradient of E wrt nuclear positions in reduced coordinates (gred)
 -1.19276335695698E-19  4.28638790210124E-19  2.90478145523701E-19
 -1.19276335695698E-19  4.28638790210124E-19 -6.42172327343362E-02
 -1.19276335695698E-19  4.28638790210124E-19  6.42172327343362E-02
 -1.19276335695698E-19  4.28638790210124E-19  1.05651712925886E-02
 -1.19276335695698E-19  4.28638790210124E-19 -1.05651712925886E-02
 -1.19276335695698E-19  4.28638790210124E-19  2.90478145523701E-19
  4.95643975582341E-03  1.74451386141104E-02  2.90478145523701E-19
 -2.45927380346545E-03  1.96803295099207E-03 -2.34763956525894E-02
 -2.45927380346545E-03  1.96803295099207E-03  2.34763956525894E-02
 -4.95643975582341E-03 -1.74451386141104E-02  2.90478145523701E-19
  2.45927380346545E-03 -1.96803295099207E-03 -2.34763956525894E-02
  2.45927380346545E-03 -1.96803295099207E-03  2.34763956525894E-02
  1.23213062368186E-03 -1.09679310274613E-02  2.09926845441389E-02
  1.23213062368186E-03 -1.09679310274613E-02 -2.09926845441389E-02
 -1.78888601414151E-02  6.64328588456647E-03  2.90478145523701E-19
 -1.23213062368186E-03  1.09679310274613E-02  2.09926845441389E-02
 -1.23213062368186E-03  1.09679310274613E-02 -2.09926845441389E-02
  1.78888601414151E-02 -6.64328588456647E-03  2.90478145523701E-19
  7.54796161313106E-03  1.73959513104646E-02  6.33369597164965E-03
  7.54796161313106E-03  1.73959513104646E-02 -6.33369597164965E-03
 -3.74280476335807E-02 -4.24641449319263E-02  2.90478145523701E-19
 -7.54796161313106E-03 -1.73959513104646E-02  6.33369597164965E-03
 -7.54796161313106E-03 -1.73959513104646E-02 -6.33369597164965E-03
  3.74280476335807E-02  4.24641449319263E-02  2.90478145523701E-19
  1.92900696658811E-03 -3.76971146788084E-02  2.90478145523701E-19
  2.06653267570162E-03  2.58069450675722E-02 -7.68137359384313E-02
  2.06653267570162E-03  2.58069450675722E-02  7.68137359384313E-02
 -1.92900696658811E-03  3.76971146788084E-02  2.90478145523701E-19
 -2.06653267570162E-03 -2.58069450675722E-02 -7.68137359384314E-02
 -2.06653267570162E-03 -2.58069450675722E-02  7.68137359384313E-02
  3.76061690882710E-02 -9.21230149372725E-02 -1.23939888213719E-01
  3.76061690882710E-02 -9.21230149372725E-02  1.23939888213719E-01
 -5.76072174580139E-03  4.36254543612726E-02  2.90478145523701E-19
 -3.76061690882710E-02  9.21230149372725E-02 -1.23939888213719E-01
 -3.76061690882710E-02  9.21230149372725E-02  1.23939888213719E-01
  5.76072174580139E-03 -4.36254543612726E-02  2.90478145523701E-19
  1.13195427444562E-02  1.84014517827980E-02  2.90478145523701E-19
 -5.46963791537432E-03  1.84441531949204E-02  5.48263022519023E-02
 -5.46963791537432E-03  1.84441531949205E-02 -5.48263022519023E-02
 -1.13195427444562E-02 -1.84014517827980E-02  2.90478145523701E-19
  5.46963791537432E-03 -1.84441531949205E-02  5.48263022519023E-02
  5.46963791537432E-03 -1.84441531949204E-02 -5.48263022519023E-02
 -5.34772549681147E-02 -3.11119214770108E-02 -1.22145216796038E-01
 -5.34772549681147E-02 -3.11119214770108E-02  1.22145216796038E-01
  5.04574809160462E-02  3.93032875300266E-02  2.90478145523701E-19
  5.34772549681147E-02  3.11119214770108E-02 -1.22145216796038E-01
  5.34772549681147E-02  3.11119214770108E-02  1.22145216796038E-01
 -5.04574809160462E-02 -3.93032875300266E-02  2.90478145523701E-19
 -1.31146388211265E-02  2.15141554895904E-02  2.90478145523701E-19
  4.79850242846494E-03  1.76607604327463E-03  2.67746773787458E-02
  4.79850242846494E-03  1.76607604327463E-03 -2.67746773787458E-02
  1.31146388211265E-02 -2.15141554895903E-02  2.90478145523701E-19
 -4.79850242846494E-03 -1.76607604327463E-03  2.67746773787458E-02
 -4.79850242846494E-03 -1.76607604327463E-03 -2.67746773787458E-02
 Total energy (etotal) [Ha]= -6.80053881138489E+02

--- Iteration: (   2/1000) Internal Cycle: (1/1)
--------------------------------------------------------------------------------

---SELF-CONSISTENT-FIELD CONVERGENCE--------------------------------------------

--- !BeginCycle
iteration_state: {dtset: 1, itime: 2, icycle: 1, }
solver: {iscf: 17, nstep: 300, nline: 4, wfoptalg: 114, }
tolerances: {toldff: 1.00E-04, }
...

[...]
                       0.0000000000E+00  0.0000000000E+00  0.0000000000E+00
                       0.0000000000E+00  0.0000000000E+00  0.0000000000E+00
                       0.0000000000E+00  0.0000000000E+00  0.0000000000E+00
                       0.0000000000E+00  0.0000000000E+00  0.0000000000E+00
                       0.0000000000E+00  0.0000000000E+00  0.0000000000E+00
                       0.0000000000E+00  0.0000000000E+00  0.0000000000E+00
           strten      1.1859959235E-05  2.5067953052E-05  3.9094945502E-05
                       0.0000000000E+00  0.0000000000E+00 -1.7628527623E-06
           symrel      1  0  0   0  1  0   0  0  1      -1  0  0   0 -1  0   0  0 -1
                      -1  0  0   0 -1  0   0  0  1       1  0  0   0  1  0   0  0 -1
            tnons      0.0000000  0.0000000  0.0000000    -0.0000000  0.0000000  0.3333333
                      -0.0000000  0.0000000  0.0000000     0.0000000  0.0000000  0.3333333
           toldff      1.00000000E-04
           tolmxf      1.00000000E-03
            typat      1  2  2  2  2  2  3  3  3  3  3  3  3  3  3  3  3  3  4  4
                       4  4  4  4  4  4  4  4  4  4  5  5  5  5  5  5  5  5  5  5
                       5  5  6  6  6  6  6  6  6  6  6  6  6  6
            upawu      2.57245278E-01  0.00000000E+00  0.00000000E+00  0.00000000E+00  0.00000000E+00  0.00000000E+00 Hartree
          usepawu           1
           useylm           1
         wfoptalg         114
           xangst      3.9296744939E+00  1.9282971442E-05  1.5949858837E+00
                       3.9296744939E+00  1.9282971442E-05  4.7899978269E+00
                       3.9296744939E+00  1.9282971442E-05  7.9698892405E+00
                       1.9282971441E-05  3.9295139260E+00  3.2711482477E-04
                       1.9282971441E-05  3.9295139260E+00  3.1896446525E+00
                       1.9282971441E-05  3.9295139260E+00  6.3799435337E+00
                       9.4288861405E-01  6.5092986665E+00  1.5949858837E+00
                       9.5120144389E-01  6.5147388178E+00  4.7855040811E+00
                       9.5120144389E-01  6.5147388178E+00  7.9743829863E+00
                       6.9164989398E+00  1.3497677514E+00  1.5949858837E+00
                       6.9081861099E+00  1.3443276001E+00  4.7855040811E+00
                       6.9081861099E+00  1.3443276001E+00  7.9743829863E+00
                       1.3460654651E+00  9.5202449237E-01  4.7979979143E-04
                       1.3460654651E+00  9.5202449237E-01  3.1894919675E+00
                       1.3479509110E+00  9.4419877417E-01  6.3799435337E+00
                       6.5133220888E+00  6.9070419255E+00  4.7979979143E-04
                       6.5133220888E+00  6.9070419255E+00  3.1894919675E+00
                       6.5114366429E+00  6.9148676437E+00  6.3799435337E+00
                       2.7478881654E+00  5.3775008896E+00  1.0639530658E-02
                       2.7478881654E+00  5.3775008896E+00  3.1793322367E+00
                       2.7518471224E+00  5.3713597119E+00  6.3799435337E+00
                       5.1114993884E+00  2.4815655283E+00  1.0639530658E-02
                       5.1114993884E+00  2.4815655283E+00  3.1793322367E+00
                       5.1075404314E+00  2.4877067060E+00  6.3799435337E+00
                       2.4827827383E+00  2.7403120047E+00  1.5949858837E+00
                       2.4889710925E+00  2.7357372988E+00  4.7785772047E+00
                       2.4889710925E+00  2.7357372988E+00  7.9813098627E+00
                       5.3766048155E+00  5.1187544132E+00  1.5949858837E+00
                       5.3704164614E+00  5.1233291191E+00  4.7785772047E+00
                       5.3704164614E+00  5.1233291191E+00  7.9813098627E+00
                       4.5799721462E+00  5.8163109829E+00  1.7629480461E-02
                       4.5799721462E+00  5.8163109829E+00  3.1723422869E+00
                       4.5884733639E+00  5.7762677221E+00  6.3799435337E+00
                       3.2794154076E+00  2.0427554349E+00  1.7629480461E-02
                       3.2794154076E+00  2.0427554349E+00  3.1723422869E+00
                       3.2709141900E+00  2.0827986958E+00  6.3799435337E+00
                       2.0688697608E+00  4.5733863738E+00  1.5949858837E+00
                       2.0881689958E+00  4.5787887464E+00  4.7717064203E+00
                       2.0881689958E+00  4.5787887464E+00  7.9881806471E+00
                       5.7905177931E+00  3.2856800441E+00  1.5949858837E+00
                       5.7712185580E+00  3.2802776715E+00  4.7717064203E+00
                       5.7712185580E+00  3.2802776715E+00  7.9881806471E+00
                       1.9651574116E+00  7.0088444525E+00  3.7707820491E-02
                       1.9651574116E+00  7.0088444525E+00  3.1522639468E+00
                       1.9168408419E+00  6.9789854539E+00  6.3799435337E+00
                       5.8942301423E+00  8.5022196541E-01  3.7707820491E-02
                       5.8942301423E+00  8.5022196541E-01  3.1522639468E+00
                       5.9425467120E+00  8.8008096402E-01  6.3799435337E+00
                       8.6224513718E-01  1.9393771936E+00  1.5949858837E+00
                       8.6136721137E-01  1.9394055850E+00  4.7782184006E+00
                       8.6136721137E-01  1.9394055850E+00  7.9816686668E+00
                       6.9971424167E+00  5.9196892243E+00  1.5949858837E+00
                       6.9980203425E+00  5.9196608329E+00  4.7782184006E+00
                       6.9980203425E+00  5.9196608329E+00  7.9816686668E+00
            xcart      7.4260085849E+00  3.6439535053E-05  3.0140865059E+00
                       7.4260085849E+00  3.6439535053E-05  9.0517840699E+00
                       7.4260085849E+00  3.6439535053E-05  1.5060907974E+01
                       3.6439535051E-05  7.4257051555E+00  6.1815743282E-04
                       3.6439535051E-05  7.4257051555E+00  6.0275548544E+00
                       3.6439535051E-05  7.4257051555E+00  1.2056346022E+01
                       1.7818012544E+00  1.2300791797E+01  3.0140865059E+00
                       1.7975102262E+00  1.2311072193E+01  9.0432921210E+00
                       1.7975102262E+00  1.2311072193E+01  1.5069399923E+01
                       1.3070288795E+01  2.5506913931E+00  3.0140865059E+00
                       1.3054579823E+01  2.5404109970E+00  9.0432921210E+00
                       1.3054579823E+01  2.5404109970E+00  1.5069399923E+01
                       2.5436950859E+00  1.7990655624E+00  9.0669020442E-04
                       2.5436950859E+00  1.7990655624E+00  6.0272663217E+00
                       2.5472580623E+00  1.7842770982E+00  1.2056346022E+01
                       1.2308394963E+01  1.3052417628E+01  9.0669020442E-04
                       1.2308394963E+01  1.3052417628E+01  6.0272663217E+00
                       1.2304831987E+01  1.3067206092E+01  1.2056346022E+01
                       5.1927560765E+00  1.0162003961E+01  2.0105799126E-02
                       5.1927560765E+00  1.0162003961E+01  6.0080672127E+00
                       5.2002374210E+00  1.0150398817E+01  1.2056346022E+01
                       9.6593339725E+00  4.6894792293E+00  2.0105799126E-02
                       9.6593339725E+00  4.6894792293E+00  6.0080672127E+00
                       9.6518526280E+00  4.7010843732E+00  1.2056346022E+01
                       4.6917794228E+00  5.1784392075E+00  3.0140865059E+00
                       4.7034737174E+00  5.1697942663E+00  9.0302022218E+00
                       4.7034737174E+00  5.1697942663E+00  1.5082489822E+01
                       1.0160310626E+01  9.6730439825E+00  3.0140865059E+00
                       1.0148616332E+01  9.6816889237E+00  9.0302022218E+00
                       1.0148616332E+01  9.6816889237E+00  1.5082489822E+01
                       8.6548930526E+00  1.0991234861E+01  3.3314889935E-02
                       8.6548930526E+00  1.0991234861E+01  5.9948581219E+00
                       8.6709580258E+00  1.0915564065E+01  1.2056346022E+01
                       6.1971969963E+00  3.8602483285E+00  3.3314889935E-02
                       6.1971969963E+00  3.8602483285E+00  5.9948581219E+00
                       6.1811320232E+00  3.9359191249E+00  1.2056346022E+01
                       3.9095972525E+00  8.6424477463E+00  3.0140865059E+00
                       3.9460675213E+00  8.6526567511E+00  9.0172183209E+00
                       3.9460675213E+00  8.6526567511E+00  1.5095473723E+01
                       1.0942492796E+01  6.2090354437E+00  3.0140865059E+00
                       1.0906022528E+01  6.1988264389E+00  9.0172183209E+00
                       1.0906022528E+01  6.1988264389E+00  1.5095473723E+01
                       3.7136093159E+00  1.3244796523E+01  7.1257453796E-02
                       3.7136093159E+00  1.3244796523E+01  5.9569155581E+00
                       3.6223042315E+00  1.3188371193E+01  1.2056346022E+01
                       1.1138480733E+01  1.6066866668E+00  7.1257453796E-02
                       1.1138480733E+01  1.6066866668E+00  5.9569155581E+00
                       1.1229785817E+01  1.6631119968E+00  1.2056346022E+01
                       1.6294071687E+00  3.6648917643E+00  3.0140865059E+00
                       1.6277481293E+00  3.6649454163E+00  9.0295241802E+00
                       1.6277481293E+00  3.6649454163E+00  1.5083167864E+01
                       1.3222682880E+01  1.1186591426E+01  3.0140865059E+00
                       1.3224341920E+01  1.1186537774E+01  9.0295241802E+00
                       1.3224341920E+01  1.1186537774E+01  1.5083167864E+01
             xred      5.0000000000E-01  2.9463205325E-22  1.6666666670E-01
                       5.0000000000E-01  2.9463205325E-22  5.0052666891E-01
                       5.0000000000E-01  2.9463205325E-22  8.3280666449E-01
                      -1.1102230246E-16  5.0000000000E-01  3.4181579932E-05
                      -1.1102230246E-16  5.0000000000E-01  3.3329915182E-01
                      -1.1102230246E-16  5.0000000000E-01  6.6666666670E-01
                       1.1996625586E-01  8.2825689927E-01  1.6666666670E-01
                       1.2102395200E-01  8.2894911090E-01  5.0005709884E-01
                       1.2102395200E-01  8.2894911090E-01  8.3327623456E-01
                       8.8003374414E-01  1.7174310073E-01  1.6666666670E-01
                       8.7897604800E-01  1.7105088910E-01  5.0005709884E-01
                       8.7897604800E-01  1.7105088910E-01  8.3327623456E-01
                       1.7126873936E-01  1.2113685117E-01  5.0136263111E-05
                       1.7126873936E-01  1.2113685117E-01  3.3328319714E-01
                       1.7150864272E-01  1.2014108838E-01  6.6666666670E-01
                       8.2873126064E-01  8.7886314883E-01  5.0136263111E-05
                       8.2873126064E-01  8.7886314883E-01  3.3328319714E-01
                       8.2849135728E-01  8.7985891162E-01  6.6666666670E-01
                       3.4962969340E-01  6.8424333227E-01  1.1117685292E-03
                       3.4962969340E-01  6.8424333227E-01  3.3222156487E-01
                       3.5013342305E-01  6.8346191283E-01  6.6666666670E-01
                       6.5037030660E-01  3.1575666773E-01  1.1117685292E-03
                       6.5037030660E-01  3.1575666773E-01  3.3222156487E-01
                       6.4986657695E-01  3.1653808717E-01  6.6666666670E-01
                       3.1590012034E-01  3.4868178015E-01  1.6666666670E-01
                       3.1668751082E-01  3.4809968065E-01  4.9933328090E-01
                       3.1668751082E-01  3.4809968065E-01  8.3400005250E-01
                       6.8409987966E-01  6.5131821985E-01  1.6666666670E-01
                       6.8331248918E-01  6.5190031935E-01  4.9933328090E-01
                       6.8331248918E-01  6.5190031935E-01  8.3400005250E-01
                       5.8273829187E-01  7.4007735036E-01  1.8421772720E-03
                       5.8273829187E-01  7.4007735036E-01  3.3149115613E-01
                       5.8381998632E-01  7.3498215242E-01  6.6666666670E-01
                       4.1726170813E-01  2.5992264964E-01  1.8421772720E-03
                       4.1726170813E-01  2.5992264964E-01  3.3149115613E-01
                       4.1618001368E-01  2.6501784758E-01  6.6666666670E-01
                       2.6323392961E-01  5.8192645554E-01  1.6666666670E-01
                       2.6568950304E-01  5.8261385328E-01  4.9861532424E-01
                       2.6568950304E-01  5.8261385328E-01  8.3471800916E-01
                       7.3676607039E-01  4.1807354446E-01  1.6666666670E-01
                       7.3431049696E-01  4.1738614672E-01  4.9861532424E-01
                       7.3431049696E-01  4.1738614672E-01  8.3471800916E-01
                       2.5003636061E-01  8.9181956619E-01  3.9402460010E-03
                       2.5003636061E-01  8.9181956619E-01  3.2939308740E-01
                       2.4388872380E-01  8.8802027166E-01  6.6666666670E-01
                       7.4996363939E-01  1.0818043381E-01  3.9402460010E-03
                       7.4996363939E-01  1.0818043381E-01  3.2939308740E-01
                       7.5611127620E-01  1.1197972834E-01  6.6666666670E-01
                       1.0970827502E-01  2.4677008392E-01  1.6666666670E-01
                       1.0959657036E-01  2.4677369706E-01  4.9929578797E-01
                       1.0959657036E-01  2.4677369706E-01  8.3403754543E-01
                       8.9029172498E-01  7.5322991608E-01  1.6666666670E-01
                       8.9040342964E-01  7.5322630294E-01  4.9929578797E-01
                       8.9040342964E-01  7.5322630294E-01  8.3403754543E-01
            znucl       63.00000   38.00000    3.00000   13.00000    7.00000    8.00000

================================================================================


- Timing analysis has been suppressed with timopt=0



================================================================================

 Suggested references for the acknowledgment of ABINIT usage.

 The users of ABINIT have little formal obligations with respect to the ABINIT group
 (those specified in the GNU General Public License, http://www.gnu.org/copyleft/gpl.txt).
 However, it is common practice in the scientific literature,
 to acknowledge the efforts of people that have made the research possible.
 In this spirit, please find below suggested citations of work written by ABINIT developers,
 corresponding to implementations inside of ABINIT that you have used in the present run.
 Note also that it will be of great value to readers of publications presenting these results,
 to read papers enabling them to understand the theoretical formalism and details
 of the ABINIT implementation.
 For information on why they are suggested, see also https://docs.abinit.org/theory/acknowledgments.
-
- [1] Gamma and beta cerium: DFT+U calculations of ground-state parameters.
- B. Amadon, F. Jollet and M. Torrent, Phys. Rev. B 77, 155104 (2008).
- Comment: DFT+U calculations, usepawu/=0. Strong suggestion to cite this paper.
- DOI and bibtex: see https://docs.abinit.org/theory/bibliography/#amadon2008a
-
- [2] Implementation of the Projector Augmented-Wave Method in the ABINIT code.
- M. Torrent, F. Jollet, F. Bottin, G. Zerah, and X. Gonze Comput. Mat. Science 42, 337, (2008).
- Comment: PAW calculations. Strong suggestion to cite this paper.
- DOI and bibtex: see https://docs.abinit.org/theory/bibliography/#torrent2008
-
- [3] Libxc: A library of exchange and correlation functionals for density functional theory.
- M.A.L. Marques, M.J.T. Oliveira, T. Burnus, Computer Physics Communications 183, 2227 (2012).
- Comment: to be cited when LibXC is used (negative value of ixc)
- Strong suggestion to cite this paper.
- DOI and bibtex: see https://docs.abinit.org/theory/bibliography/#marques2012
-
- [4] Large scale ab initio calculations based on three levels of parallelization
- F. Bottin, S. Leroux, A. Knyazev, G. Zerah, Comput. Mat. Science 42, 329, (2008).
- Comment: in case LOBPCG algorithm is used (wfoptalg=4/14/114).
- Strong suggestion to cite this paper in your publications.
- This paper is also available at http://www.arxiv.org/abs/0707.3405
- DOI and bibtex: see https://docs.abinit.org/theory/bibliography/#bottin2008
-
- [5] The Abinit project: Impact, environment and recent developments.
- Computer Phys. Comm. 248, 107042 (2020).
- X.Gonze, B. Amadon, G. Antonius, F.Arnardi, L.Baguet, J.-M.Beuken,
- J.Bieder, F.Bottin, J.Bouchet, E.Bousquet, N.Brouwer, F.Bruneval,
- G.Brunin, T.Cavignac, J.-B. Charraud, Wei Chen, M.Cote, S.Cottenier,
- J.Denier, G.Geneste, Ph.Ghosez, M.Giantomassi, Y.Gillet, O.Gingras,
- D.R.Hamann, G.Hautier, Xu He, N.Helbig, N.Holzwarth, Y.Jia, F.Jollet,
- W.Lafargue-Dit-Hauret, K.Lejaeghere, M.A.L.Marques, A.Martin, C.Martins,
- H.P.C. Miranda, F.Naccarato, K. Persson, G.Petretto, V.Planes, Y.Pouillon,
- S.Prokhorenko, F.Ricci, G.-M.Rignanese, A.H.Romero, M.M.Schmitt, M.Torrent,
- M.J.van Setten, B.Van Troeye, M.J.Verstraete, G.Zerah and J.W.Zwanzig
- Comment: the fifth generic paper describing the ABINIT project.
- Note that a version of this paper, that is not formatted for Computer Phys. Comm. 
- is available at https://www.abinit.org/sites/default/files/ABINIT20.pdf .
- The licence allows the authors to put it on the Web.
- DOI and bibtex: see https://docs.abinit.org/theory/bibliography/#gonze2020
-
- [6] ABINIT: Overview, and focus on selected capabilities
- J. Chem. Phys. 152, 124102 (2020).
- A. Romero, D.C. Allan, B. Amadon, G. Antonius, T. Applencourt, L.Baguet,
- J.Bieder, F.Bottin, J.Bouchet, E.Bousquet, F.Bruneval,
- G.Brunin, D.Caliste, M.Cote,
- J.Denier, C. Dreyer, Ph.Ghosez, M.Giantomassi, Y.Gillet, O.Gingras,
- D.R.Hamann, G.Hautier, F.Jollet, G. Jomard,
- A.Martin, 
- H.P.C. Miranda, F.Naccarato, G.Petretto, N.A. Pike, V.Planes,
- S.Prokhorenko, T. Rangel, F.Ricci, G.-M.Rignanese, M.Royo, M.Stengel, M.Torrent,
- M.J.van Setten, B.Van Troeye, M.J.Verstraete, J.Wiktor, J.W.Zwanziger, and X.Gonze.
- Comment: a global overview of ABINIT, with focus on selected capabilities .
- Note that a version of this paper, that is not formatted for J. Chem. Phys 
- is available at https://www.abinit.org/sites/default/files/ABINIT20_JPC.pdf .
- The licence allows the authors to put it on the Web.
- DOI and bibtex: see https://docs.abinit.org/theory/bibliography/#romero2020
-
- [7] Recent developments in the ABINIT software package.
- Computer Phys. Comm. 205, 106 (2016).
- X.Gonze, F.Jollet, F.Abreu Araujo, D.Adams, B.Amadon, T.Applencourt,
- C.Audouze, J.-M.Beuken, J.Bieder, A.Bokhanchuk, E.Bousquet, F.Bruneval
- D.Caliste, M.Cote, F.Dahm, F.Da Pieve, M.Delaveau, M.Di Gennaro,
- B.Dorado, C.Espejo, G.Geneste, L.Genovese, A.Gerossier, M.Giantomassi,
- Y.Gillet, D.R.Hamann, L.He, G.Jomard, J.Laflamme Janssen, S.Le Roux,
- A.Levitt, A.Lherbier, F.Liu, I.Lukacevic, A.Martin, C.Martins,
- M.J.T.Oliveira, S.Ponce, Y.Pouillon, T.Rangel, G.-M.Rignanese,
- A.H.Romero, B.Rousseau, O.Rubel, A.A.Shukri, M.Stankovski, M.Torrent,
- M.J.Van Setten, B.Van Troeye, M.J.Verstraete, D.Waroquier, J.Wiktor,
- B.Xu, A.Zhou, J.W.Zwanziger.
- Comment: the fourth generic paper describing the ABINIT project.
- Note that a version of this paper, that is not formatted for Computer Phys. Comm. 
- is available at https://www.abinit.org/sites/default/files/ABINIT16.pdf .
- The licence allows the authors to put it on the Web.
- DOI and bibtex: see https://docs.abinit.org/theory/bibliography/#gonze2016
-
- Proc.   0 individual time (sec): cpu=         78.7  wall=         82.3

================================================================================

 Calculation completed.
.Delivered   0 WARNINGs and   9 COMMENTs to log file.
+Overall time at end (sec) : cpu=       9742.3  wall=       9870.8
