
.Version 9.10.5 of ABINIT 
.(MPI version, prepared for a x86_64_linux_gnu12.3 computer) 

.Copyright (C) 1998-2022 ABINIT group . 
 ABINIT comes with ABSOLUTELY NO WARRANTY.
 It is free software, and you are welcome to redistribute it
 under certain conditions (GNU General Public License,
 see ~abinit/COPYING or http://www.gnu.org/copyleft/gpl.txt).

 ABINIT is a project of the Universite Catholique de Louvain,
 Corning Inc. and other collaborators, see ~abinit/doc/developers/contributors.txt .
 Please read https://docs.abinit.org/theory/acknowledgments for suggested
 acknowledgments of the ABINIT effort.
 For more information, see https://www.abinit.org .

.Starting date : Fri 15 Mar 2024.
- ( at 15h00 )
  
- input  file    -> /gpfs/projects/acad/leds/DataBase_examples/adding_entry_to_DB/flow_lumi/w0/t5/run.abi
- output file    -> /gpfs/projects/acad/leds/DataBase_examples/adding_entry_to_DB/flow_lumi/w0/t5/run.abo
- root for input  files -> indata/in
- root for output files -> outdata/out

- inpspheads : Reading pseudopotential header in XML form from 
-   /gpfs/home/acad/ucl-modl/jbouq/paw-sr-11_pbe_standard_xml/Eu.xml
- inpspheads : Reading pseudopotential header in XML form from 
-   /gpfs/home/acad/ucl-modl/jbouq/paw-sr-11_pbe_standard_xml/Sr.xml
- inpspheads : Reading pseudopotential header in XML form from 
-   /gpfs/home/acad/ucl-modl/jbouq/paw-sr-11_pbe_standard_xml/Li.xml
- inpspheads : Reading pseudopotential header in XML form from 
-   /gpfs/home/acad/ucl-modl/jbouq/paw-sr-11_pbe_standard_xml/Al.xml
- inpspheads : Reading pseudopotential header in XML form from 
-   /gpfs/home/acad/ucl-modl/jbouq/paw-sr-11_pbe_standard_xml/N.xml
- inpspheads : Reading pseudopotential header in XML form from 
-   /gpfs/home/acad/ucl-modl/jbouq/paw-sr-11_pbe_standard_xml/O.xml

 Symmetries : space group P2/m (# 10); Bravais mP (primitive monocl.)
================================================================================
 Values of the parameters that define the memory need of the present run
     intxc =       0    ionmov =       0      iscf =      17    lmnmax =      32
     lnmax =       8     mgfft =      54  mpssoang =       4    mqgrid =    3641
     natom =      54  nloc_mem =       2    nspden =       2   nspinor =       1
    nsppol =       2      nsym =       4    n1xccc =       1    ntypat =       6
    occopt =       2   xclevel =       2
-    mband =         180        mffmem =           1         mkmem =           1
       mpw =          51          nfft =       19440          nkpt =           1
Pmy_natom=         3
 PAW method is used; the additional fine FFT grid is defined by:
   mgfftf=        90    nfftf =     54000
================================================================================
P This job should need less than                      53.710 Mbytes of memory.
  Rough estimation (10% accuracy) of disk space for files :
_ WF disk file :      1.683 Mbytes ; DEN or POT disk file :      0.826 Mbytes.
================================================================================

--------------------------------------------------------------------------------
------------- Echo of variables that govern the present computation ------------
--------------------------------------------------------------------------------
-
- outvars: echo of selected default values                                      
-   iomode0 =  0 , fftalg0 =312 , wfoptalg0 = 10
-
- outvars: echo of global parameters not present in the input file              
-  max_nthreads =    0
-
 -outvars: echo values of preprocessed input variables --------
-          iomode           1
            acell      1.0000000000E+00  1.0000000000E+00  1.0000000000E+00 Bohr
              amu      1.51965000E+02  8.76200000E+01  6.94100000E+00
                       2.69815390E+01  1.40067400E+01  1.59994000E+01
        autoparal           1
           bandpp           6
          chkprim           0
      chksymbreak           0
     densfor_pred           6
           diemac      5.00000000E+00
             ecut      1.00000000E+01 Hartree
-          fftalg         312
           irdden           1
           istwfk        2
              ixc     -101130
            jpawu      2.57245278E-02  0.00000000E+00  0.00000000E+00  0.00000000E+00  0.00000000E+00  0.00000000E+00 Hartree
         kptrlatt        1    0    0      0    1    0      0    0    1
          kptrlen      1.48514103E+01
            lpawu           3      -1      -1      -1      -1      -1
P           mkmem           1
            natom          54
            nband         180     180
           nbdbuf          30
            ngfft          45      48      54
          ngfftdg          60      60      90
             nkpt           1
-          npband          10
-           npfft           6
-        np_spkpt           2
           nspden           2
           nsppol           2
            nstep         300
             nsym           4
           ntypat           6
              occ      1.000000  1.000000  1.000000  1.000000  1.000000  1.000000
                       1.000000  1.000000  1.000000  1.000000  1.000000  1.000000
                       1.000000  1.000000  1.000000  1.000000  1.000000  1.000000
                       1.000000  1.000000  1.000000  1.000000  1.000000  1.000000
                       1.000000  1.000000  1.000000  1.000000  1.000000  1.000000
                       1.000000  1.000000  1.000000  1.000000  1.000000  1.000000
                       1.000000  1.000000  1.000000  1.000000  1.000000  1.000000
                       1.000000  1.000000  1.000000  1.000000  1.000000  1.000000
                       1.000000  1.000000  1.000000  1.000000  1.000000  1.000000
                       1.000000  1.000000  1.000000  1.000000  1.000000  1.000000
                       1.000000  1.000000  1.000000  1.000000  1.000000  1.000000
                       1.000000  1.000000  1.000000  1.000000  1.000000  1.000000
                       1.000000  1.000000  1.000000  1.000000  1.000000  1.000000
                       1.000000  1.000000  1.000000  1.000000  1.000000  1.000000
                       1.000000  1.000000  1.000000  1.000000  1.000000  1.000000
                       1.000000  1.000000  1.000000  1.000000  1.000000  1.000000
                       1.000000  1.000000  1.000000  1.000000  1.000000  1.000000
                       1.000000  1.000000  1.000000  1.000000  1.000000  1.000000
                       1.000000  1.000000  1.000000  1.000000  1.000000  1.000000
                       1.000000  1.000000  1.000000  1.000000  1.000000  1.000000
                       1.000000  1.000000  1.000000  1.000000  1.000000  1.000000
                       1.000000  1.000000  1.000000  1.000000  1.000000  1.000000
                       1.000000  1.000000  1.000000  1.000000  1.000000  1.000000
                       1.000000  0.000000  0.000000  0.000000  0.000000  0.000000
                       0.000000  0.000000  0.000000  0.000000  0.000000  0.000000
                       0.000000  0.000000  0.000000  0.000000  0.000000  0.000000
                       0.000000  0.000000  0.000000  0.000000  0.000000  0.000000
                       0.000000  0.000000  0.000000  0.000000  0.000000  0.000000
                       0.000000  0.000000  0.000000  0.000000  0.000000  0.000000
                       0.000000  0.000000  0.000000  0.000000  0.000000  0.000000
                       1.000000  1.000000  1.000000  1.000000  1.000000  1.000000
                       1.000000  1.000000  1.000000  1.000000  1.000000  1.000000
                       1.000000  1.000000  1.000000  1.000000  1.000000  1.000000
                       1.000000  1.000000  1.000000  1.000000  1.000000  1.000000
                       1.000000  1.000000  1.000000  1.000000  1.000000  1.000000
                       1.000000  1.000000  1.000000  1.000000  1.000000  1.000000
                       1.000000  1.000000  1.000000  1.000000  1.000000  1.000000
                       1.000000  1.000000  1.000000  1.000000  1.000000  1.000000
                       1.000000  1.000000  1.000000  1.000000  1.000000  1.000000
                       1.000000  1.000000  1.000000  1.000000  1.000000  1.000000
                       1.000000  1.000000  1.000000  1.000000  1.000000  1.000000
                       1.000000  1.000000  1.000000  1.000000  1.000000  1.000000
                       1.000000  1.000000  1.000000  1.000000  1.000000  1.000000
                       1.000000  1.000000  1.000000  1.000000  1.000000  1.000000
                       1.000000  1.000000  1.000000  1.000000  1.000000  1.000000
                       1.000000  1.000000  1.000000  1.000000  1.000000  1.000000
                       1.000000  1.000000  1.000000  1.000000  1.000000  1.000000
                       1.000000  1.000000  1.000000  1.000000  1.000000  1.000000
                       1.000000  1.000000  1.000000  1.000000  1.000000  1.000000
                       1.000000  1.000000  1.000000  1.000000  1.000000  1.000000
                       1.000000  1.000000  1.000000  1.000000  1.000000  1.000000
                       1.000000  1.000000  1.000000  1.000000  1.000000  1.000000
                       0.000000  0.000000  0.000000  0.000000  0.000000  0.000000
                       0.000000  0.000000  0.000000  0.000000  0.000000  0.000000
                       0.000000  0.000000  0.000000  0.000000  0.000000  0.000000
                       0.000000  0.000000  0.000000  0.000000  0.000000  0.000000
                       0.000000  0.000000  0.000000  0.000000  0.000000  0.000000
                       0.000000  0.000000  0.000000  0.000000  0.000000  0.000000
                       0.000000  0.000000  0.000000  0.000000  0.000000  0.000000
                       0.000000  0.000000  0.000000  0.000000  0.000000  0.000000
           occopt           2
        paral_kgb           1
        pawecutdg      2.00000000E+01 Hartree
         pawmixdg           1
            prtwf           0
            rprim      1.4852017170E+01  7.2879070107E-05  0.0000000000E+00
                       7.2879070106E-05  1.4851410311E+01  0.0000000000E+00
                       0.0000000000E+00  0.0000000000E+00  1.8084519032E+01
          spgroup          10
           spinat      0.0000000000E+00  0.0000000000E+00  7.0000000000E+00
                       0.0000000000E+00  0.0000000000E+00  0.0000000000E+00
                       0.0000000000E+00  0.0000000000E+00  0.0000000000E+00
                       0.0000000000E+00  0.0000000000E+00  0.0000000000E+00
                       0.0000000000E+00  0.0000000000E+00  0.0000000000E+00
                       0.0000000000E+00  0.0000000000E+00  0.0000000000E+00
                       0.0000000000E+00  0.0000000000E+00  0.0000000000E+00
                       0.0000000000E+00  0.0000000000E+00  0.0000000000E+00
                       0.0000000000E+00  0.0000000000E+00  0.0000000000E+00
                       0.0000000000E+00  0.0000000000E+00  0.0000000000E+00
                       0.0000000000E+00  0.0000000000E+00  0.0000000000E+00
                       0.0000000000E+00  0.0000000000E+00  0.0000000000E+00
                       0.0000000000E+00  0.0000000000E+00  0.0000000000E+00
                       0.0000000000E+00  0.0000000000E+00  0.0000000000E+00
                       0.0000000000E+00  0.0000000000E+00  0.0000000000E+00
                       0.0000000000E+00  0.0000000000E+00  0.0000000000E+00
                       0.0000000000E+00  0.0000000000E+00  0.0000000000E+00
                       0.0000000000E+00  0.0000000000E+00  0.0000000000E+00
                       0.0000000000E+00  0.0000000000E+00  0.0000000000E+00
                       0.0000000000E+00  0.0000000000E+00  0.0000000000E+00
                       0.0000000000E+00  0.0000000000E+00  0.0000000000E+00
                       0.0000000000E+00  0.0000000000E+00  0.0000000000E+00
                       0.0000000000E+00  0.0000000000E+00  0.0000000000E+00
                       0.0000000000E+00  0.0000000000E+00  0.0000000000E+00
                       0.0000000000E+00  0.0000000000E+00  0.0000000000E+00
                       0.0000000000E+00  0.0000000000E+00  0.0000000000E+00
                       0.0000000000E+00  0.0000000000E+00  0.0000000000E+00
                       0.0000000000E+00  0.0000000000E+00  0.0000000000E+00
                       0.0000000000E+00  0.0000000000E+00  0.0000000000E+00
                       0.0000000000E+00  0.0000000000E+00  0.0000000000E+00
                       0.0000000000E+00  0.0000000000E+00  0.0000000000E+00
                       0.0000000000E+00  0.0000000000E+00  0.0000000000E+00
                       0.0000000000E+00  0.0000000000E+00  0.0000000000E+00
                       0.0000000000E+00  0.0000000000E+00  0.0000000000E+00
                       0.0000000000E+00  0.0000000000E+00  0.0000000000E+00
                       0.0000000000E+00  0.0000000000E+00  0.0000000000E+00
                       0.0000000000E+00  0.0000000000E+00  0.0000000000E+00
                       0.0000000000E+00  0.0000000000E+00  0.0000000000E+00
                       0.0000000000E+00  0.0000000000E+00  0.0000000000E+00
                       0.0000000000E+00  0.0000000000E+00  0.0000000000E+00
                       0.0000000000E+00  0.0000000000E+00  0.0000000000E+00
                       0.0000000000E+00  0.0000000000E+00  0.0000000000E+00
                       0.0000000000E+00  0.0000000000E+00  0.0000000000E+00
                       0.0000000000E+00  0.0000000000E+00  0.0000000000E+00
                       0.0000000000E+00  0.0000000000E+00  0.0000000000E+00
                       0.0000000000E+00  0.0000000000E+00  0.0000000000E+00
                       0.0000000000E+00  0.0000000000E+00  0.0000000000E+00
                       0.0000000000E+00  0.0000000000E+00  0.0000000000E+00
                       0.0000000000E+00  0.0000000000E+00  0.0000000000E+00
                       0.0000000000E+00  0.0000000000E+00  0.0000000000E+00
                       0.0000000000E+00  0.0000000000E+00  0.0000000000E+00
                       0.0000000000E+00  0.0000000000E+00  0.0000000000E+00
                       0.0000000000E+00  0.0000000000E+00  0.0000000000E+00
                       0.0000000000E+00  0.0000000000E+00  0.0000000000E+00
           symrel      1  0  0   0  1  0   0  0  1      -1  0  0   0 -1  0   0  0 -1
                      -1  0  0   0 -1  0   0  0  1       1  0  0   0  1  0   0  0 -1
            tnons      0.0000000  0.0000000  0.0000000    -0.0000000  0.0000000  0.3333333
                      -0.0000000  0.0000000  0.0000000     0.0000000  0.0000000  0.3333333
           toldfe      1.00000000E-05 Hartree
            typat      1  2  2  2  2  2  3  3  3  3  3  3  3  3  3  3  3  3  4  4
                       4  4  4  4  4  4  4  4  4  4  5  5  5  5  5  5  5  5  5  5
                       5  5  6  6  6  6  6  6  6  6  6  6  6  6
            upawu      2.57245278E-01  0.00000000E+00  0.00000000E+00  0.00000000E+00  0.00000000E+00  0.00000000E+00 Hartree
          usepawu           1
           useylm           1
         wfoptalg         114
           xangst      3.9296744940E+00  1.9282971442E-05  1.5949858837E+00
                       3.9296744940E+00  1.9282971442E-05  4.7899978268E+00
                       3.9296744940E+00  1.9282971442E-05  7.9698892406E+00
                       1.9282971441E-05  3.9295139260E+00  3.2711492080E-04
                       1.9282971441E-05  3.9295139260E+00  3.1896446524E+00
                       1.9282971441E-05  3.9295139260E+00  6.3799435337E+00
                       9.4288861440E-01  6.5092986668E+00  1.5949858837E+00
                       9.5120144387E-01  6.5147388179E+00  4.7855040807E+00
                       9.5120144387E-01  6.5147388179E+00  7.9743829867E+00
                       6.9164989395E+00  1.3497677511E+00  1.5949858837E+00
                       6.9081861100E+00  1.3443276001E+00  4.7855040807E+00
                       6.9081861100E+00  1.3443276001E+00  7.9743829867E+00
                       1.3460654654E+00  9.5202449262E-01  4.7979996795E-04
                       1.3460654654E+00  9.5202449262E-01  3.1894919674E+00
                       1.3479509108E+00  9.4419877430E-01  6.3799435337E+00
                       6.5133220885E+00  6.9070419253E+00  4.7979996795E-04
                       6.5133220885E+00  6.9070419253E+00  3.1894919674E+00
                       6.5114366431E+00  6.9148676436E+00  6.3799435337E+00
                       2.7478881655E+00  5.3775008899E+00  1.0639530378E-02
                       2.7478881655E+00  5.3775008899E+00  3.1793322369E+00
                       2.7518471224E+00  5.3713597117E+00  6.3799435337E+00
                       5.1114993884E+00  2.4815655281E+00  1.0639530378E-02
                       5.1114993884E+00  2.4815655281E+00  3.1793322369E+00
                       5.1075404314E+00  2.4877067062E+00  6.3799435337E+00
                       2.4827827380E+00  2.7403120047E+00  1.5949858837E+00
                       2.4889710923E+00  2.7357372989E+00  4.7785772047E+00
                       2.4889710923E+00  2.7357372989E+00  7.9813098627E+00
                       5.3766048159E+00  5.1187544133E+00  1.5949858837E+00
                       5.3704164616E+00  5.1233291191E+00  4.7785772047E+00
                       5.3704164616E+00  5.1233291191E+00  7.9813098627E+00
                       4.5799721465E+00  5.8163109833E+00  1.7629480729E-02
                       4.5799721465E+00  5.8163109833E+00  3.1723422866E+00
                       4.5884733638E+00  5.7762677220E+00  6.3799435337E+00
                       3.2794154074E+00  2.0427554347E+00  1.7629480729E-02
                       3.2794154074E+00  2.0427554347E+00  3.1723422866E+00
                       3.2709141901E+00  2.0827986959E+00  6.3799435337E+00
                       2.0688697607E+00  4.5733863735E+00  1.5949858837E+00
                       2.0881689956E+00  4.5787887466E+00  4.7717064199E+00
                       2.0881689956E+00  4.5787887466E+00  7.9881806475E+00
                       5.7905177932E+00  3.2856800445E+00  1.5949858837E+00
                       5.7712185583E+00  3.2802776713E+00  4.7717064199E+00
                       5.7712185583E+00  3.2802776713E+00  7.9881806475E+00
                       1.9651574115E+00  7.0088444526E+00  3.7707820481E-02
                       1.9651574115E+00  7.0088444526E+00  3.1522639468E+00
                       1.9168408419E+00  6.9789854542E+00  6.3799435337E+00
                       5.8942301424E+00  8.5022196533E-01  3.7707820481E-02
                       5.8942301424E+00  8.5022196533E-01  3.1522639468E+00
                       5.9425467120E+00  8.8008096371E-01  6.3799435337E+00
                       8.6224513701E-01  1.9393771934E+00  1.5949858837E+00
                       8.6136721172E-01  1.9394055853E+00  4.7782184008E+00
                       8.6136721172E-01  1.9394055853E+00  7.9816686665E+00
                       6.9971424169E+00  5.9196892245E+00  1.5949858837E+00
                       6.9980203422E+00  5.9196608326E+00  4.7782184008E+00
                       6.9980203422E+00  5.9196608326E+00  7.9816686665E+00
            xcart      7.4260085850E+00  3.6439535053E-05  3.0140865059E+00
                       7.4260085850E+00  3.6439535053E-05  9.0517840697E+00
                       7.4260085850E+00  3.6439535053E-05  1.5060907974E+01
                       3.6439535052E-05  7.4257051555E+00  6.1815761428E-04
                       3.6439535052E-05  7.4257051555E+00  6.0275548543E+00
                       3.6439535052E-05  7.4257051555E+00  1.2056346022E+01
                       1.7818012550E+00  1.2300791797E+01  3.0140865059E+00
                       1.7975102261E+00  1.2311072193E+01  9.0432921203E+00
                       1.7975102261E+00  1.2311072193E+01  1.5069399924E+01
                       1.3070288794E+01  2.5506913926E+00  3.0140865059E+00
                       1.3054579823E+01  2.5404109970E+00  9.0432921203E+00
                       1.3054579823E+01  2.5404109970E+00  1.5069399924E+01
                       2.5436950866E+00  1.7990655629E+00  9.0669053798E-04
                       2.5436950866E+00  1.7990655629E+00  6.0272663213E+00
                       2.5472580620E+00  1.7842770984E+00  1.2056346022E+01
                       1.2308394962E+01  1.3052417627E+01  9.0669053798E-04
                       1.2308394962E+01  1.3052417627E+01  6.0272663213E+00
                       1.2304831987E+01  1.3067206092E+01  1.2056346022E+01
                       5.1927560765E+00  1.0162003961E+01  2.0105798597E-02
                       5.1927560765E+00  1.0162003961E+01  6.0080672133E+00
                       5.2002374210E+00  1.0150398816E+01  1.2056346022E+01
                       9.6593339725E+00  4.6894792288E+00  2.0105798597E-02
                       9.6593339725E+00  4.6894792288E+00  6.0080672133E+00
                       9.6518526281E+00  4.7010843737E+00  1.2056346022E+01
                       4.6917794223E+00  5.1784392075E+00  3.0140865059E+00
                       4.7034737171E+00  5.1697942664E+00  9.0302022217E+00
                       4.7034737171E+00  5.1697942664E+00  1.5082489822E+01
                       1.0160310627E+01  9.6730439826E+00  3.0140865059E+00
                       1.0148616332E+01  9.6816889237E+00  9.0302022217E+00
                       1.0148616332E+01  9.6816889237E+00  1.5082489822E+01
                       8.6548930531E+00  1.0991234862E+01  3.3314890442E-02
                       8.6548930531E+00  1.0991234862E+01  5.9948581214E+00
                       8.6709580255E+00  1.0915564065E+01  1.2056346022E+01
                       6.1971969960E+00  3.8602483280E+00  3.3314890442E-02
                       6.1971969960E+00  3.8602483280E+00  5.9948581214E+00
                       6.1811320235E+00  3.9359191253E+00  1.2056346022E+01
                       3.9095972524E+00  8.6424477457E+00  3.0140865059E+00
                       3.9460675208E+00  8.6526567514E+00  9.0172183201E+00
                       3.9460675208E+00  8.6526567514E+00  1.5095473724E+01
                       1.0942492797E+01  6.2090354444E+00  3.0140865059E+00
                       1.0906022528E+01  6.1988264386E+00  9.0172183201E+00
                       1.0906022528E+01  6.1988264386E+00  1.5095473724E+01
                       3.7136093157E+00  1.3244796523E+01  7.1257453778E-02
                       3.7136093157E+00  1.3244796523E+01  5.9569155581E+00
                       3.6223042315E+00  1.3188371194E+01  1.2056346022E+01
                       1.1138480733E+01  1.6066866666E+00  7.1257453778E-02
                       1.1138480733E+01  1.6066866666E+00  5.9569155581E+00
                       1.1229785818E+01  1.6631119962E+00  1.2056346022E+01
                       1.6294071684E+00  3.6648917639E+00  3.0140865059E+00
                       1.6277481300E+00  3.6649454169E+00  9.0295241807E+00
                       1.6277481300E+00  3.6649454169E+00  1.5083167863E+01
                       1.3222682881E+01  1.1186591426E+01  3.0140865059E+00
                       1.3224341919E+01  1.1186537773E+01  9.0295241807E+00
                       1.3224341919E+01  1.1186537773E+01  1.5083167863E+01
             xred      5.0000000000E-01  3.0715467997E-22  1.6666666670E-01
                       5.0000000000E-01  3.0715467997E-22  5.0052666890E-01
                       5.0000000000E-01  3.0715467997E-22  8.3280666450E-01
                      -5.5511151231E-17  5.0000000000E-01  3.4181589966E-05
                      -5.5511151231E-17  5.0000000000E-01  3.3329915181E-01
                      -5.5511151231E-17  5.0000000000E-01  6.6666666670E-01
                       1.1996625590E-01  8.2825689930E-01  1.6666666670E-01
                       1.2102395200E-01  8.2894911090E-01  5.0005709880E-01
                       1.2102395200E-01  8.2894911090E-01  8.3327623460E-01
                       8.8003374410E-01  1.7174310070E-01  1.6666666670E-01
                       8.7897604800E-01  1.7105088910E-01  5.0005709880E-01
                       8.7897604800E-01  1.7105088910E-01  8.3327623460E-01
                       1.7126873940E-01  1.2113685120E-01  5.0136281556E-05
                       1.7126873940E-01  1.2113685120E-01  3.3328319712E-01
                       1.7150864270E-01  1.2014108840E-01  6.6666666670E-01
                       8.2873126060E-01  8.7886314880E-01  5.0136281556E-05
                       8.2873126060E-01  8.7886314880E-01  3.3328319712E-01
                       8.2849135730E-01  8.7985891160E-01  6.6666666670E-01
                       3.4962969340E-01  6.8424333230E-01  1.1117685000E-03
                       3.4962969340E-01  6.8424333230E-01  3.3222156490E-01
                       3.5013342305E-01  6.8346191280E-01  6.6666666670E-01
                       6.5037030660E-01  3.1575666770E-01  1.1117685000E-03
                       6.5037030660E-01  3.1575666770E-01  3.3222156490E-01
                       6.4986657695E-01  3.1653808720E-01  6.6666666670E-01
                       3.1590012030E-01  3.4868178015E-01  1.6666666670E-01
                       3.1668751080E-01  3.4809968065E-01  4.9933328090E-01
                       3.1668751080E-01  3.4809968065E-01  8.3400005250E-01
                       6.8409987970E-01  6.5131821985E-01  1.6666666670E-01
                       6.8331248920E-01  6.5190031935E-01  4.9933328090E-01
                       6.8331248920E-01  6.5190031935E-01  8.3400005250E-01
                       5.8273829190E-01  7.4007735040E-01  1.8421773000E-03
                       5.8273829190E-01  7.4007735040E-01  3.3149115610E-01
                       5.8381998630E-01  7.3498215240E-01  6.6666666670E-01
                       4.1726170810E-01  2.5992264960E-01  1.8421773000E-03
                       4.1726170810E-01  2.5992264960E-01  3.3149115610E-01
                       4.1618001370E-01  2.6501784760E-01  6.6666666670E-01
                       2.6323392960E-01  5.8192645550E-01  1.6666666670E-01
                       2.6568950300E-01  5.8261385330E-01  4.9861532420E-01
                       2.6568950300E-01  5.8261385330E-01  8.3471800920E-01
                       7.3676607040E-01  4.1807354450E-01  1.6666666670E-01
                       7.3431049700E-01  4.1738614670E-01  4.9861532420E-01
                       7.3431049700E-01  4.1738614670E-01  8.3471800920E-01
                       2.5003636060E-01  8.9181956620E-01  3.9402460000E-03
                       2.5003636060E-01  8.9181956620E-01  3.2939308740E-01
                       2.4388872380E-01  8.8802027170E-01  6.6666666670E-01
                       7.4996363940E-01  1.0818043380E-01  3.9402460000E-03
                       7.4996363940E-01  1.0818043380E-01  3.2939308740E-01
                       7.5611127620E-01  1.1197972830E-01  6.6666666670E-01
                       1.0970827500E-01  2.4677008390E-01  1.6666666670E-01
                       1.0959657040E-01  2.4677369710E-01  4.9929578800E-01
                       1.0959657040E-01  2.4677369710E-01  8.3403754540E-01
                       8.9029172500E-01  7.5322991610E-01  1.6666666670E-01
                       8.9040342960E-01  7.5322630290E-01  4.9929578800E-01
                       8.9040342960E-01  7.5322630290E-01  8.3403754540E-01
            znucl       63.00000   38.00000    3.00000   13.00000    7.00000    8.00000

================================================================================

 chkinp: Checking input parameters for consistency.

================================================================================
== DATASET  1 ==================================================================
-   mpi_nproc: 120, omp_nthreads: -1 (-1 if OMP is not activated)


--- !DatasetInfo
iteration_state: {dtset: 1, }
dimensions: {natom: 54, nkpt: 1, mband: 180, nsppol: 2, nspinor: 1, nspden: 2, mpw: 51, }
cutoff_energies: {ecut:  10.0, pawecutdg:  20.0, }
electrons: {nelect:   2.71000000E+02, charge:   0.00000000E+00, occopt:   2.00000000E+00, tsmear:   1.00000000E-02, }
meta: {optdriver: 0, ionmov: 0, optcell: 0, iscf: 17, paral_kgb: 1, }
...

 Real(R)+Recip(G) space primitive vectors, cartesian coordinates (Bohr,Bohr^-1):
 R(1)= 14.8520172  0.0000729  0.0000000  G(1)=  0.0673309 -0.0000003  0.0000000
 R(2)=  0.0000729 14.8514103  0.0000000  G(2)= -0.0000003  0.0673337  0.0000000
 R(3)=  0.0000000  0.0000000 18.0845190  G(3)=  0.0000000  0.0000000  0.0552959
 Unit cell volume ucvol=  3.9889639E+03 bohr^3
 Angles (23,13,12)=  9.00000000E+01  9.00000000E+01  8.99994377E+01 degrees

 Coarse grid specifications (used for wave-functions):

 getcut: wavevector=  0.0000  0.0000  0.0000  ngfft=  45  48  54
         ecut(hartree)=     10.000   => boxcut(ratio)=   2.08114

 Fine grid specifications (used for densities):

 getcut: wavevector=  0.0000  0.0000  0.0000  ngfft=  60  60  90
         ecut(hartree)=     20.000   => boxcut(ratio)=   2.00671

--- Pseudopotential description ------------------------------------------------
- pspini: atom type   1  psp file is /gpfs/home/acad/ucl-modl/jbouq/paw-sr-11_pbe_standard_xml/Eu.xml
- pspatm: opening atomic psp file    /gpfs/home/acad/ucl-modl/jbouq/paw-sr-11_pbe_standard_xml/Eu.xml
- pspatm : Reading pseudopotential header in XML form from /gpfs/home/acad/ucl-modl/jbouq/paw-sr-11_pbe_standard_xml/Eu.xml
 Pseudopotential format is: paw10
 basis_size (lnmax)=  8 (lmn_size= 32), orbitals=   0   0   1   1   2   2   3   3
 Spheres core radius: rc_sph= 2.52170005
 1 radial meshes are used:
  - mesh 1: r(i)=AA*[exp(BB*(i-1))-1], size=1500 , AA= 0.14034E-03 BB= 0.88415E-02
 Shapefunction is SIN type: shapef(r)=[sin(pi*r/rshp)/(pi*r/rshp)]**2
 Radius for shape functions =  2.30830346
 mmax= 1500
 Radial grid used for partial waves is grid 1
 Radial grid used for projectors is grid 1
 Radial grid used for (t)core density is grid 1
 Radial grid used for Vloc is grid 1
 Radial grid used for pseudo valence density is grid 1
 Mesh size for Vloc has been set to 1343 to avoid numerical noise.
 Compensation charge density is not taken into account in XC energy/potential
 pspatm: atomic psp has been read  and splines computed

- pspini: atom type   2  psp file is /gpfs/home/acad/ucl-modl/jbouq/paw-sr-11_pbe_standard_xml/Sr.xml
- pspatm: opening atomic psp file    /gpfs/home/acad/ucl-modl/jbouq/paw-sr-11_pbe_standard_xml/Sr.xml
- pspatm : Reading pseudopotential header in XML form from /gpfs/home/acad/ucl-modl/jbouq/paw-sr-11_pbe_standard_xml/Sr.xml
 Pseudopotential format is: paw10
 basis_size (lnmax)=  6 (lmn_size= 18), orbitals=   0   0   1   1   2   2
 Spheres core radius: rc_sph= 2.20669967
 1 radial meshes are used:
  - mesh 1: r(i)=AA*[exp(BB*(i-1))-1], size=1500 , AA= 0.22443E-03 BB= 0.85283E-02
 Shapefunction is SIN type: shapef(r)=[sin(pi*r/rshp)/(pi*r/rshp)]**2
 Radius for shape functions =  1.81361893
 mmax= 1500
 Radial grid used for partial waves is grid 1
 Radial grid used for projectors is grid 1
 Radial grid used for (t)core density is grid 1
 Radial grid used for Vloc is grid 1
 Radial grid used for pseudo valence density is grid 1
 Mesh size for Vloc has been set to 1337 to avoid numerical noise.
 Compensation charge density is not taken into account in XC energy/potential
 pspatm: atomic psp has been read  and splines computed

- pspini: atom type   3  psp file is /gpfs/home/acad/ucl-modl/jbouq/paw-sr-11_pbe_standard_xml/Li.xml
- pspatm: opening atomic psp file    /gpfs/home/acad/ucl-modl/jbouq/paw-sr-11_pbe_standard_xml/Li.xml
- pspatm : Reading pseudopotential header in XML form from /gpfs/home/acad/ucl-modl/jbouq/paw-sr-11_pbe_standard_xml/Li.xml
 Pseudopotential format is: paw10
 basis_size (lnmax)=  5 (lmn_size=  9), orbitals=   0   0   0   1   1
 Spheres core radius: rc_sph= 1.60264751
 1 radial meshes are used:
  - mesh 1: r(i)=AA*[exp(BB*(i-1))-1], size=2001 , AA= 0.17851E-02 BB= 0.53552E-02
 Shapefunction is BESSEL type: shapef(r,l)=aa(1,l)*jl(q(1,l)*r)+aa(2,l)*jl(q(2,l)*r)
 Radius for shape functions =  1.30023672
 mmax= 2001
 Radial grid used for partial waves is grid 1
 Radial grid used for projectors is grid 1
 Radial grid used for (t)core density is grid 1
 Radial grid used for Vloc is grid 1
 Radial grid used for pseudo valence density is grid 1
 Mesh size for Vloc has been set to 1742 to avoid numerical noise.
 Compensation charge density is not taken into account in XC energy/potential
 pspatm: atomic psp has been read  and splines computed

- pspini: atom type   4  psp file is /gpfs/home/acad/ucl-modl/jbouq/paw-sr-11_pbe_standard_xml/Al.xml
- pspatm: opening atomic psp file    /gpfs/home/acad/ucl-modl/jbouq/paw-sr-11_pbe_standard_xml/Al.xml
- pspatm : Reading pseudopotential header in XML form from /gpfs/home/acad/ucl-modl/jbouq/paw-sr-11_pbe_standard_xml/Al.xml
 Pseudopotential format is: paw10
 basis_size (lnmax)=  4 (lmn_size=  8), orbitals=   0   0   1   1
 Spheres core radius: rc_sph= 1.90363307
 1 radial meshes are used:
  - mesh 1: r(i)=AA*[exp(BB*(i-1))-1], size=2001 , AA= 0.46377E-03 BB= 0.60291E-02
 Shapefunction is SIN type: shapef(r)=[sin(pi*r/rshp)/(pi*r/rshp)]**2
 Radius for shape functions =  1.60786206
 mmax= 2001
 Radial grid used for partial waves is grid 1
 Radial grid used for projectors is grid 1
 Radial grid used for (t)core density is grid 1
 Radial grid used for Vloc is grid 1
 Radial grid used for pseudo valence density is grid 1
 Mesh size for Vloc has been set to 1771 to avoid numerical noise.
 Compensation charge density is not taken into account in XC energy/potential
 pspatm: atomic psp has been read  and splines computed

- pspini: atom type   5  psp file is /gpfs/home/acad/ucl-modl/jbouq/paw-sr-11_pbe_standard_xml/N.xml
- pspatm: opening atomic psp file    /gpfs/home/acad/ucl-modl/jbouq/paw-sr-11_pbe_standard_xml/N.xml
- pspatm : Reading pseudopotential header in XML form from /gpfs/home/acad/ucl-modl/jbouq/paw-sr-11_pbe_standard_xml/N.xml
 Pseudopotential format is: paw10
 basis_size (lnmax)=  4 (lmn_size=  8), orbitals=   0   0   1   1
 Spheres core radius: rc_sph= 1.20000000
 1 radial meshes are used:
  - mesh 1: r(i)=AA*[exp(BB*(i-1))-1], size= 787 , AA= 0.19344E-02 BB= 0.13541E-01
 Shapefunction is SIN type: shapef(r)=[sin(pi*r/rshp)/(pi*r/rshp)]**2
 Radius for shape functions =  1.00599851
 mmax=  787
 Radial grid used for partial waves is grid 1
 Radial grid used for projectors is grid 1
 Radial grid used for (t)core density is grid 1
 Radial grid used for Vloc is grid 1
 Radial grid used for pseudo valence density is grid 1
 Mesh size for Vloc has been set to  683 to avoid numerical noise.
 Compensation charge density is not taken into account in XC energy/potential
 pspatm: atomic psp has been read  and splines computed

- pspini: atom type   6  psp file is /gpfs/home/acad/ucl-modl/jbouq/paw-sr-11_pbe_standard_xml/O.xml
- pspatm: opening atomic psp file    /gpfs/home/acad/ucl-modl/jbouq/paw-sr-11_pbe_standard_xml/O.xml
- pspatm : Reading pseudopotential header in XML form from /gpfs/home/acad/ucl-modl/jbouq/paw-sr-11_pbe_standard_xml/O.xml
 Pseudopotential format is: paw10
 basis_size (lnmax)=  4 (lmn_size=  8), orbitals=   0   0   1   1
 Spheres core radius: rc_sph= 1.41465230
 1 radial meshes are used:
  - mesh 1: r(i)=AA*[exp(BB*(i-1))-1], size=2001 , AA= 0.72565E-03 BB= 0.58052E-02
 Shapefunction is SIN type: shapef(r)=[sin(pi*r/rshp)/(pi*r/rshp)]**2
 Radius for shape functions =  1.20231231
 mmax= 2001
 Radial grid used for partial waves is grid 1
 Radial grid used for projectors is grid 1
 Radial grid used for (t)core density is grid 1
 Radial grid used for Vloc is grid 1
 Radial grid used for pseudo valence density is grid 1
 Mesh size for Vloc has been set to 1762 to avoid numerical noise.
 Compensation charge density is not taken into account in XC energy/potential
 pspatm: atomic psp has been read  and splines computed

   8.49875662E+04                                ecore*ucvol(ha*bohr**3)
--------------------------------------------------------------------------------

_setup2: Arith. and geom. avg. npw (full set) are     101.000     101.000


 ******************************************
 DFT+U Method used: FLL
 ******************************************

================================================================================

--- !BeginCycle
iteration_state: {dtset: 1, }
solver: {iscf: 17, nstep: 300, nline: 4, wfoptalg: 114, }
tolerances: {toldfe: 1.00E-05, }
...

     iter   Etot(hartree)      deltaE(h)  residm     nres2
 ETOT  1  -680.38633500510    -6.804E+02 1.546E-04 1.180E+01
 ETOT  2  -680.58419937222    -1.979E-01 1.154E-05 1.411E+02
 ETOT  3  -680.40851383899     1.757E-01 4.636E-03 7.510E+00
 ETOT  4  -680.43184019824    -2.333E-02 1.274E-05 4.183E+00
 ETOT  5  -680.40962708686     2.221E-02 8.855E-06 2.422E+00
 ETOT  6  -680.40098378890     8.643E-03 2.992E-05 1.855E+00
 ETOT  7  -680.38647701881     1.451E-02 5.903E-05 8.867E-01
 ETOT  8  -680.37496323836     1.151E-02 1.696E-04 5.714E-02
 ETOT  9  -680.37543167579    -4.684E-04 2.086E-07 1.491E-02
 ETOT 10  -680.37539752566     3.415E-05 1.043E-08 5.996E-03
 ETOT 11  -680.37536710577     3.042E-05 4.391E-08 3.771E-04
 ETOT 12  -680.37538733714    -2.023E-05 5.156E-09 9.419E-05
 ETOT 13  -680.37539485812    -7.521E-06 4.385E-10 2.654E-05
 ETOT 14  -680.37539648782    -1.630E-06 2.119E-10 7.941E-06

 At SCF step   14, etot is converged : 
  for the second time, diff in etot=  1.630E-06 < toldfe=  1.000E-05

 Cartesian components of stress tensor (hartree/bohr^3)
  sigma(1 1)=  2.25610216E-03  sigma(3 2)=  0.00000000E+00
  sigma(2 2)=  2.25514976E-03  sigma(3 1)=  0.00000000E+00
  sigma(3 3)=  2.30708970E-03  sigma(2 1)=  1.36760148E-06


--- !ResultsGS
iteration_state: {dtset: 1, }
comment   : Summary of ground state results
lattice_vectors:
- [ 14.8520172,   0.0000729,   0.0000000, ]
- [  0.0000729,  14.8514103,   0.0000000, ]
- [  0.0000000,   0.0000000,  18.0845190, ]
lattice_lengths: [  14.85202,   14.85141,   18.08452, ]
lattice_angles: [ 90.000,  90.000,  89.999, ] # degrees, (23, 13, 12)
lattice_volume:   3.9889639E+03
convergence: {deltae: -1.630E-06, res2:  7.941E-06, residm:  2.119E-10, diffor: null, }
etotal    :  -6.80375396E+02
entropy   :   0.00000000E+00
fermie    :   2.56087860E-01
cartesian_stress_tensor: # hartree/bohr^3
- [  2.25610216E-03,   1.36760148E-06,   0.00000000E+00, ]
- [  1.36760148E-06,   2.25514976E-03,   0.00000000E+00, ]
- [  0.00000000E+00,   0.00000000E+00,   2.30708970E-03, ]
pressure_GPa:  -6.6868E+01
xred      :
- [  5.0000E-01,   3.0715E-22,   1.6667E-01, Eu]
- [  5.0000E-01,   3.0715E-22,   5.0053E-01, Sr]
- [  5.0000E-01,   3.0715E-22,   8.3281E-01, Sr]
- [ -5.5511E-17,   5.0000E-01,   3.4182E-05, Sr]
- [ -5.5511E-17,   5.0000E-01,   3.3330E-01, Sr]
- [ -5.5511E-17,   5.0000E-01,   6.6667E-01, Sr]
- [  1.1997E-01,   8.2826E-01,   1.6667E-01, Li]
- [  1.2102E-01,   8.2895E-01,   5.0006E-01, Li]
- [  1.2102E-01,   8.2895E-01,   8.3328E-01, Li]
- [  8.8003E-01,   1.7174E-01,   1.6667E-01, Li]
- [  8.7898E-01,   1.7105E-01,   5.0006E-01, Li]
- [  8.7898E-01,   1.7105E-01,   8.3328E-01, Li]
- [  1.7127E-01,   1.2114E-01,   5.0136E-05, Li]
- [  1.7127E-01,   1.2114E-01,   3.3328E-01, Li]
- [  1.7151E-01,   1.2014E-01,   6.6667E-01, Li]
- [  8.2873E-01,   8.7886E-01,   5.0136E-05, Li]
- [  8.2873E-01,   8.7886E-01,   3.3328E-01, Li]
- [  8.2849E-01,   8.7986E-01,   6.6667E-01, Li]
- [  3.4963E-01,   6.8424E-01,   1.1118E-03, Al]
- [  3.4963E-01,   6.8424E-01,   3.3222E-01, Al]
- [  3.5013E-01,   6.8346E-01,   6.6667E-01, Al]
- [  6.5037E-01,   3.1576E-01,   1.1118E-03, Al]
- [  6.5037E-01,   3.1576E-01,   3.3222E-01, Al]
- [  6.4987E-01,   3.1654E-01,   6.6667E-01, Al]
- [  3.1590E-01,   3.4868E-01,   1.6667E-01, Al]
- [  3.1669E-01,   3.4810E-01,   4.9933E-01, Al]
- [  3.1669E-01,   3.4810E-01,   8.3400E-01, Al]
- [  6.8410E-01,   6.5132E-01,   1.6667E-01, Al]
- [  6.8331E-01,   6.5190E-01,   4.9933E-01, Al]
- [  6.8331E-01,   6.5190E-01,   8.3400E-01, Al]
- [  5.8274E-01,   7.4008E-01,   1.8422E-03,  N]
- [  5.8274E-01,   7.4008E-01,   3.3149E-01,  N]
- [  5.8382E-01,   7.3498E-01,   6.6667E-01,  N]
- [  4.1726E-01,   2.5992E-01,   1.8422E-03,  N]
- [  4.1726E-01,   2.5992E-01,   3.3149E-01,  N]
- [  4.1618E-01,   2.6502E-01,   6.6667E-01,  N]
- [  2.6323E-01,   5.8193E-01,   1.6667E-01,  N]
- [  2.6569E-01,   5.8261E-01,   4.9862E-01,  N]
- [  2.6569E-01,   5.8261E-01,   8.3472E-01,  N]
- [  7.3677E-01,   4.1807E-01,   1.6667E-01,  N]
- [  7.3431E-01,   4.1739E-01,   4.9862E-01,  N]
- [  7.3431E-01,   4.1739E-01,   8.3472E-01,  N]
- [  2.5004E-01,   8.9182E-01,   3.9402E-03,  O]
- [  2.5004E-01,   8.9182E-01,   3.2939E-01,  O]
- [  2.4389E-01,   8.8802E-01,   6.6667E-01,  O]
- [  7.4996E-01,   1.0818E-01,   3.9402E-03,  O]
- [  7.4996E-01,   1.0818E-01,   3.2939E-01,  O]
- [  7.5611E-01,   1.1198E-01,   6.6667E-01,  O]
- [  1.0971E-01,   2.4677E-01,   1.6667E-01,  O]
- [  1.0960E-01,   2.4677E-01,   4.9930E-01,  O]
- [  1.0960E-01,   2.4677E-01,   8.3404E-01,  O]
- [  8.9029E-01,   7.5323E-01,   1.6667E-01,  O]
- [  8.9040E-01,   7.5323E-01,   4.9930E-01,  O]
- [  8.9040E-01,   7.5323E-01,   8.3404E-01,  O]
cartesian_forces: # hartree/bohr
- [  4.01556360E-21,  -3.41322906E-20,  -0.00000000E+00, ]
- [  4.01556360E-21,  -3.41322906E-20,  -3.77108880E-03, ]
- [  4.01556360E-21,  -3.41322906E-20,   3.77108880E-03, ]
- [  4.01556360E-21,  -3.41322906E-20,   7.68725012E-04, ]
- [  4.01556360E-21,  -3.41322906E-20,  -7.68725012E-04, ]
- [  4.01556360E-21,  -3.41322906E-20,  -0.00000000E+00, ]
- [  6.99198262E-04,   8.20355311E-04,  -0.00000000E+00, ]
- [ -1.40869961E-05,  -3.75050797E-04,  -1.88277555E-03, ]
- [ -1.40869961E-05,  -3.75050797E-04,   1.88277555E-03, ]
- [ -6.99198262E-04,  -8.20355311E-04,  -0.00000000E+00, ]
- [  1.40869961E-05,   3.75050797E-04,  -1.88277555E-03, ]
- [  1.40869961E-05,   3.75050797E-04,   1.88277555E-03, ]
- [  9.04644318E-04,  -9.99883736E-04,   1.64899420E-03, ]
- [  9.04644318E-04,  -9.99883736E-04,  -1.64899420E-03, ]
- [ -7.88136390E-04,   3.79224396E-04,  -0.00000000E+00, ]
- [ -9.04644318E-04,   9.99883736E-04,   1.64899420E-03, ]
- [ -9.04644318E-04,   9.99883736E-04,  -1.64899420E-03, ]
- [  7.88136390E-04,  -3.79224396E-04,  -0.00000000E+00, ]
- [  1.00348003E-03,   1.60732010E-03,   1.41528576E-03, ]
- [  1.00348003E-03,   1.60732010E-03,  -1.41528576E-03, ]
- [ -2.67870442E-03,  -2.70151678E-03,  -0.00000000E+00, ]
- [ -1.00348003E-03,  -1.60732010E-03,   1.41528576E-03, ]
- [ -1.00348003E-03,  -1.60732010E-03,  -1.41528576E-03, ]
- [  2.67870442E-03,   2.70151678E-03,  -0.00000000E+00, ]
- [ -6.79567215E-05,  -2.44516062E-03,  -0.00000000E+00, ]
- [  1.67628863E-05,   1.57183388E-03,  -3.86951453E-03, ]
- [  1.67628863E-05,   1.57183388E-03,   3.86951453E-03, ]
- [  6.79567215E-05,   2.44516062E-03,  -0.00000000E+00, ]
- [ -1.67628863E-05,  -1.57183388E-03,  -3.86951453E-03, ]
- [ -1.67628863E-05,  -1.57183388E-03,   3.86951453E-03, ]
- [  1.11776976E-03,  -7.12532021E-03,  -7.89810209E-03, ]
- [  1.11776976E-03,  -7.12532021E-03,   7.89810209E-03, ]
- [ -1.43506626E-03,   2.61932101E-03,  -0.00000000E+00, ]
- [ -1.11776976E-03,   7.12532021E-03,  -7.89810209E-03, ]
- [ -1.11776976E-03,   7.12532021E-03,   7.89810209E-03, ]
- [  1.43506626E-03,  -2.61932101E-03,  -0.00000000E+00, ]
- [  1.32016453E-03,  -9.98462422E-04,  -0.00000000E+00, ]
- [  1.77224627E-04,  -3.45070612E-04,   3.17018680E-03, ]
- [  1.77224627E-04,  -3.45070612E-04,  -3.17018680E-03, ]
- [ -1.32016453E-03,   9.98462422E-04,  -0.00000000E+00, ]
- [ -1.77224627E-04,   3.45070612E-04,   3.17018680E-03, ]
- [ -1.77224627E-04,   3.45070612E-04,  -3.17018680E-03, ]
- [ -5.09980061E-03,  -1.74416847E-03,  -8.14131064E-03, ]
- [ -5.09980061E-03,  -1.74416847E-03,   8.14131064E-03, ]
- [  2.26095221E-03,   2.87836458E-03,  -0.00000000E+00, ]
- [  5.09980061E-03,   1.74416847E-03,  -8.14131064E-03, ]
- [  5.09980061E-03,   1.74416847E-03,   8.14131064E-03, ]
- [ -2.26095221E-03,  -2.87836458E-03,  -0.00000000E+00, ]
- [ -2.54116214E-03,   3.35236412E-04,  -0.00000000E+00, ]
- [ -7.41981374E-04,  -8.47336232E-04,   1.50589682E-03, ]
- [ -7.41981374E-04,  -8.47336232E-04,  -1.50589682E-03, ]
- [  2.54116214E-03,  -3.35236412E-04,  -0.00000000E+00, ]
- [  7.41981374E-04,   8.47336232E-04,   1.50589682E-03, ]
- [  7.41981374E-04,   8.47336232E-04,  -1.50589682E-03, ]
force_length_stats: {min:   3.43676885E-20, max:   1.06957755E-02, mean:   3.55033385E-03, }
...

 Integrated electronic and magnetization densities in atomic spheres:
 ---------------------------------------------------------------------
 Radius=ratsph(iatom), smearing ratsm=  0.0000. Diff(up-dn)=approximate z local magnetic moment.
 Atom    Radius    up_density   dn_density  Total(up+dn)  Diff(up-dn)
    1   2.52170    10.819097     3.945272     14.764369     6.873825
    2   2.20670     3.673154     3.671283      7.344437     0.001872
    3   2.20670     3.673154     3.671283      7.344437     0.001872
    4   2.20670     3.677977     3.677653      7.355630     0.000325
    5   2.20670     3.677977     3.677653      7.355630     0.000325
    6   2.20670     3.675550     3.675616      7.351166    -0.000066
    7   1.60265     1.068411     1.068368      2.136779     0.000044
    8   1.60265     1.064460     1.064525      2.128985    -0.000065
    9   1.60265     1.064460     1.064525      2.128985    -0.000065
   10   1.60265     1.068411     1.068368      2.136779     0.000044
   11   1.60265     1.064460     1.064525      2.128985    -0.000065
   12   1.60265     1.064460     1.064525      2.128985    -0.000065
   13   1.60265     1.066667     1.066538      2.133205     0.000129
   14   1.60265     1.066667     1.066538      2.133205     0.000129
   15   1.60265     1.065526     1.065511      2.131037     0.000015
   16   1.60265     1.066667     1.066538      2.133205     0.000129
   17   1.60265     1.066667     1.066538      2.133205     0.000129
   18   1.60265     1.065526     1.065511      2.131037     0.000015
   19   1.90363     0.466833     0.466534      0.933367     0.000299
   20   1.90363     0.466833     0.466534      0.933367     0.000299
   21   1.90363     0.468393     0.468399      0.936792    -0.000006
   22   1.90363     0.466833     0.466534      0.933367     0.000299
   23   1.90363     0.466833     0.466534      0.933367     0.000299
   24   1.90363     0.468393     0.468399      0.936792    -0.000006
   25   1.90363     0.470336     0.469730      0.940066     0.000606
   26   1.90363     0.465341     0.465724      0.931065    -0.000383
   27   1.90363     0.465341     0.465724      0.931065    -0.000383
   28   1.90363     0.470336     0.469730      0.940066     0.000606
   29   1.90363     0.465341     0.465724      0.931065    -0.000383
   30   1.90363     0.465341     0.465724      0.931065    -0.000383
   31   1.20000     1.239734     1.244888      2.484622    -0.005153
   32   1.20000     1.239734     1.244888      2.484622    -0.005153
   33   1.20000     1.229327     1.229357      2.458684    -0.000029
   34   1.20000     1.239734     1.244888      2.484622    -0.005153
   35   1.20000     1.239734     1.244888      2.484622    -0.005153
   36   1.20000     1.229327     1.229357      2.458684    -0.000029
   37   1.20000     1.227312     1.227100      2.454412     0.000212
   38   1.20000     1.229839     1.230004      2.459843    -0.000165
   39   1.20000     1.229839     1.230004      2.459843    -0.000165
   40   1.20000     1.227312     1.227100      2.454412     0.000212
   41   1.20000     1.229839     1.230004      2.459843    -0.000165
   42   1.20000     1.229839     1.230004      2.459843    -0.000165
   43   1.41465     2.313823     2.320310      4.634133    -0.006487
   44   1.41465     2.313823     2.320310      4.634133    -0.006487
   45   1.41465     2.313693     2.313919      4.627612    -0.000226
   46   1.41465     2.313823     2.320310      4.634133    -0.006487
   47   1.41465     2.313823     2.320310      4.634133    -0.006487
   48   1.41465     2.313693     2.313919      4.627612    -0.000226
   49   1.41465     2.313944     2.313913      4.627857     0.000031
   50   1.41465     2.312242     2.312395      4.624637    -0.000152
   51   1.41465     2.312242     2.312395      4.624637    -0.000152
   52   1.41465     2.313944     2.313913      4.627857     0.000031
   53   1.41465     2.312242     2.312395      4.624637    -0.000152
   54   1.41465     2.312242     2.312395      4.624637    -0.000152
 ---------------------------------------------------------------------
  Sum:             90.146554    83.315017    173.461571     6.831537
 Total magnetization (from the atomic spheres):             6.831537
 Total magnetization (exact up - dn):                       6.999958

 PAW TEST:
 ==== Compensation charge inside spheres ============
 The following values must be close to each other ...
 Compensation charge over spherical meshes =     21.226621005516805
 Compensation charge over fine fft grid    =     21.226725742415180

 ==== Results concerning PAW augmentation regions ====

 Total pseudopotential strength Dij (hartree):
 Atom #  1 - Spin component 1
  -0.76815  -0.07507   0.00000   0.00000   0.00000   0.00000   0.00000   0.00000  -0.00001   0.00000   0.00004   0.00000 ...
  -0.07507  -0.09226   0.00000   0.00000   0.00000   0.00000   0.00000   0.00000  -0.00000   0.00000   0.00001   0.00000 ...
   0.00000   0.00000  -0.71826   0.00000   0.00004   0.13982   0.00000  -0.00011   0.00000   0.00000   0.00000   0.00000 ...
   0.00000   0.00000   0.00000  -0.71833   0.00000   0.00000   0.14014   0.00000   0.00000   0.00000   0.00000   0.00000 ...
   0.00000   0.00000   0.00004   0.00000  -0.71812  -0.00011   0.00000   0.13939   0.00000   0.00000   0.00000   0.00000 ...
   0.00000   0.00000   0.13982   0.00000  -0.00011   0.89335   0.00000   0.00004   0.00000   0.00000   0.00000   0.00000 ...
   0.00000   0.00000   0.00000   0.14014   0.00000   0.00000   0.89326   0.00000   0.00000   0.00000   0.00000   0.00000 ...
   0.00000   0.00000  -0.00011   0.00000   0.13939   0.00004   0.00000   0.89346   0.00000   0.00000   0.00000   0.00000 ...
  -0.00001  -0.00000   0.00000   0.00000   0.00000   0.00000   0.00000   0.00000  -0.18700   0.00000  -0.00000   0.00000 ...
   0.00000   0.00000   0.00000   0.00000   0.00000   0.00000   0.00000   0.00000   0.00000  -0.18700   0.00000  -0.00000 ...
   0.00004   0.00001   0.00000   0.00000   0.00000   0.00000   0.00000   0.00000  -0.00000   0.00000  -0.18700   0.00000 ...
   0.00000   0.00000   0.00000   0.00000   0.00000   0.00000   0.00000   0.00000   0.00000  -0.00000   0.00000  -0.18700 ...
   ...  only 12  components have been written...
 Atom #  1 - Spin component 2
  -0.68869  -0.06596   0.00000   0.00000   0.00000   0.00000   0.00000   0.00000   0.00002   0.00000   0.00002   0.00000 ...
  -0.06596  -0.09134   0.00000   0.00000   0.00000   0.00000   0.00000   0.00000   0.00001   0.00000  -0.00000   0.00000 ...
   0.00000   0.00000  -0.65254   0.00000   0.00009   0.06939   0.00000  -0.00016   0.00000   0.00000   0.00000   0.00000 ...
   0.00000   0.00000   0.00000  -0.65259   0.00000   0.00000   0.06970   0.00000   0.00000   0.00000   0.00000   0.00000 ...
   0.00000   0.00000   0.00009   0.00000  -0.65225  -0.00016   0.00000   0.06886   0.00000   0.00000   0.00000   0.00000 ...
   0.00000   0.00000   0.06939   0.00000  -0.00016   0.96426   0.00000   0.00010   0.00000   0.00000   0.00000   0.00000 ...
   0.00000   0.00000   0.00000   0.06970   0.00000   0.00000   0.96420   0.00000   0.00000   0.00000   0.00000   0.00000 ...
   0.00000   0.00000  -0.00016   0.00000   0.06886   0.00010   0.00000   0.96456   0.00000   0.00000   0.00000   0.00000 ...
   0.00002   0.00001   0.00000   0.00000   0.00000   0.00000   0.00000   0.00000  -0.17243   0.00000  -0.00002   0.00000 ...
   0.00000   0.00000   0.00000   0.00000   0.00000   0.00000   0.00000   0.00000   0.00000  -0.17236   0.00000   0.00001 ...
   0.00002  -0.00000   0.00000   0.00000   0.00000   0.00000   0.00000   0.00000  -0.00002   0.00000  -0.17249   0.00000 ...
   0.00000   0.00000   0.00000   0.00000   0.00000   0.00000   0.00000   0.00000   0.00000   0.00001   0.00000  -0.17234 ...
   ...  only 12  components have been written...
 Atom # 54 - Spin component 1
   0.61864  -1.77287   0.00028   0.00000   0.00063  -0.00201  -0.00002  -0.00449
  -1.77287   5.14248  -0.00077  -0.00001  -0.00171   0.00547   0.00008   0.01218
   0.00028  -0.00077  -0.30680  -0.00001  -0.00029   0.95656   0.00003   0.00152
   0.00000  -0.00001  -0.00001  -0.30653  -0.00000   0.00003   0.95506   0.00000
   0.00063  -0.00171  -0.00029  -0.00000  -0.30720   0.00152   0.00000   0.95861
  -0.00201   0.00547   0.95656   0.00003   0.00152  -0.23710  -0.00013  -0.00761
  -0.00002   0.00008   0.00003   0.95506   0.00000  -0.00013  -0.22924  -0.00001
  -0.00449   0.01218   0.00152   0.00000   0.95861  -0.00761  -0.00001  -0.24710
 Atom # 54 - Spin component 2
   0.61863  -1.77287   0.00028   0.00000   0.00063  -0.00202  -0.00003  -0.00449
  -1.77287   5.14246  -0.00077  -0.00001  -0.00171   0.00547   0.00009   0.01217
   0.00028  -0.00077  -0.30680  -0.00000  -0.00029   0.95658   0.00002   0.00152
   0.00000  -0.00001  -0.00000  -0.30653  -0.00000   0.00002   0.95509   0.00000
   0.00063  -0.00171  -0.00029  -0.00000  -0.30721   0.00152   0.00000   0.95864
  -0.00202   0.00547   0.95658   0.00002   0.00152  -0.23718  -0.00012  -0.00759
  -0.00003   0.00009   0.00002   0.95509   0.00000  -0.00012  -0.22940  -0.00001
  -0.00449   0.01217   0.00152   0.00000   0.95864  -0.00759  -0.00001  -0.24725


 Augmentation waves occupancies Rhoij:
 Atom #  1 - Spin component 1
   0.99439  -0.00360   0.00000   0.00000   0.00000   0.00000   0.00000   0.00000   0.00075   0.00000  -0.00085   0.00000 ...
  -0.00360   0.12247   0.00000   0.00000   0.00000   0.00000   0.00000   0.00000  -0.00216   0.00000   0.00399   0.00000 ...
   0.00000   0.00000   0.99969   0.00000   0.00013   0.01415   0.00000  -0.00004   0.00000   0.00000   0.00000   0.00000 ...
   0.00000   0.00000   0.00000   0.99773   0.00000   0.00000   0.01561   0.00000   0.00000   0.00000   0.00000   0.00000 ...
   0.00000   0.00000   0.00013   0.00000   0.99852  -0.00005   0.00000   0.01518   0.00000   0.00000   0.00000   0.00000 ...
   0.00000   0.00000   0.01415   0.00000  -0.00005   0.00555   0.00000  -0.00011   0.00000   0.00000   0.00000   0.00000 ...
   0.00000   0.00000   0.00000   0.01561   0.00000   0.00000   0.00500   0.00000   0.00000   0.00000   0.00000   0.00000 ...
   0.00000   0.00000  -0.00004   0.00000   0.01518  -0.00011   0.00000   0.00434   0.00000   0.00000   0.00000   0.00000 ...
   0.00075  -0.00216   0.00000   0.00000   0.00000   0.00000   0.00000   0.00000   0.03373   0.00000  -0.00111   0.00000 ...
   0.00000   0.00000   0.00000   0.00000   0.00000   0.00000   0.00000   0.00000   0.00000   0.06679   0.00000  -0.00439 ...
  -0.00085   0.00399   0.00000   0.00000   0.00000   0.00000   0.00000   0.00000  -0.00111   0.00000   0.01541   0.00000 ...
   0.00000   0.00000   0.00000   0.00000   0.00000   0.00000   0.00000   0.00000   0.00000  -0.00439   0.00000   0.05145 ...
   ...  only 12  components have been written...
 Atom #  1 - Spin component 2
   0.93072   0.12784   0.00000   0.00000   0.00000   0.00000   0.00000   0.00000   0.00030   0.00000  -0.00025   0.00000 ...
   0.12784   0.11952   0.00000   0.00000   0.00000   0.00000   0.00000   0.00000  -0.00143   0.00000   0.00275   0.00000 ...
   0.00000   0.00000   0.98665   0.00000   0.00020   0.03699   0.00000  -0.00004   0.00000   0.00000   0.00000   0.00000 ...
   0.00000   0.00000   0.00000   0.98412   0.00000   0.00000   0.03847   0.00000   0.00000   0.00000   0.00000   0.00000 ...
   0.00000   0.00000   0.00020   0.00000   0.98531  -0.00005   0.00000   0.03800   0.00000   0.00000   0.00000   0.00000 ...
   0.00000   0.00000   0.03699   0.00000  -0.00005   0.00577   0.00000  -0.00009   0.00000   0.00000   0.00000   0.00000 ...
   0.00000   0.00000   0.00000   0.03847   0.00000   0.00000   0.00537   0.00000   0.00000   0.00000   0.00000   0.00000 ...
   0.00000   0.00000  -0.00004   0.00000   0.03800  -0.00009   0.00000   0.00482   0.00000   0.00000   0.00000   0.00000 ...
   0.00030  -0.00143   0.00000   0.00000   0.00000   0.00000   0.00000   0.00000   0.02390   0.00000  -0.00065   0.00000 ...
   0.00000   0.00000   0.00000   0.00000   0.00000   0.00000   0.00000   0.00000   0.00000   0.04801   0.00000  -0.00294 ...
  -0.00025   0.00275   0.00000   0.00000   0.00000   0.00000   0.00000   0.00000  -0.00065   0.00000   0.01067   0.00000 ...
   0.00000   0.00000   0.00000   0.00000   0.00000   0.00000   0.00000   0.00000   0.00000  -0.00294   0.00000   0.03683 ...
   ...  only 12  components have been written...
 Atom # 54 - Spin component 1
   1.00404   0.01602   0.00078   0.00058  -0.00194  -0.00046   0.00003  -0.00127
   0.01602   0.00043  -0.00200  -0.00005  -0.00520  -0.00013  -0.00000  -0.00029
   0.00078  -0.00200   1.08793   0.00003   0.01048   0.04932   0.00000   0.00159
   0.00058  -0.00005   0.00003   1.11065  -0.00020   0.00001   0.05002  -0.00000
  -0.00194  -0.00520   0.01048  -0.00020   1.11952   0.00153  -0.00000   0.05238
  -0.00046  -0.00013   0.04932   0.00001   0.00153   0.00226   0.00000   0.00013
   0.00003  -0.00000   0.00000   0.05002  -0.00000   0.00000   0.00227  -0.00000
  -0.00127  -0.00029   0.00159  -0.00000   0.05238   0.00013  -0.00000   0.00248
 Atom # 54 - Spin component 2
   1.00404   0.01602   0.00075   0.00057  -0.00192  -0.00046   0.00003  -0.00127
   0.01602   0.00043  -0.00199  -0.00005  -0.00521  -0.00013  -0.00000  -0.00029
   0.00075  -0.00199   1.08792   0.00002   0.01043   0.04932   0.00001   0.00159
   0.00057  -0.00005   0.00002   1.11082  -0.00021   0.00001   0.05002  -0.00000
  -0.00192  -0.00521   0.01043  -0.00021   1.11967   0.00153  -0.00000   0.05239
  -0.00046  -0.00013   0.04932   0.00001   0.00153   0.00226   0.00000   0.00013
   0.00003  -0.00000   0.00001   0.05002  -0.00000   0.00000   0.00227  -0.00000
  -0.00127  -0.00029   0.00159  -0.00000   0.05239   0.00013  -0.00000   0.00248

 "PAW+U" part of augmentation waves occupancies Rhoij:
 Atom #  1 - L=3 ONLY - Spin component 1
   1.21854   0.00000   0.00065   0.00000   0.00100   0.00000   0.00082   0.07682   0.00000   0.00006   0.00000   0.00115   0.00000   0.00074
   0.00000   1.21496   0.00000   0.00041   0.00000  -0.00817   0.00000   0.00000   0.07723   0.00000  -0.00005   0.00000  -0.00140   0.00000
   0.00065   0.00000   1.22705   0.00000  -0.00137   0.00000  -0.00259   0.00012   0.00000   0.08157   0.00000  -0.00082   0.00000  -0.00061
   0.00000   0.00041   0.00000   1.23028   0.00000   0.00423   0.00000   0.00000   0.00004   0.00000   0.08204   0.00000   0.00220   0.00000
   0.00100   0.00000  -0.00137   0.00000   1.21966   0.00000   0.00428   0.00120   0.00000  -0.00081   0.00000   0.07710   0.00000   0.00241
   0.00000  -0.00817   0.00000   0.00423   0.00000   1.21115   0.00000   0.00000  -0.00137   0.00000   0.00218   0.00000   0.07568   0.00000
   0.00082   0.00000  -0.00259   0.00000   0.00428   0.00000   1.22388   0.00075   0.00000  -0.00063   0.00000   0.00240   0.00000   0.07979
   0.07682   0.00000   0.00012   0.00000   0.00120   0.00000   0.00075   0.00711   0.00000  -0.00005   0.00000   0.00044   0.00000  -0.00004
   0.00000   0.07723   0.00000   0.00004   0.00000  -0.00137   0.00000   0.00000   0.00932   0.00000  -0.00010   0.00000   0.00256   0.00000
   0.00006   0.00000   0.08157   0.00000  -0.00081   0.00000  -0.00063  -0.00005   0.00000   0.00817   0.00000  -0.00009   0.00000   0.00022
   0.00000  -0.00005   0.00000   0.08204   0.00000   0.00218   0.00000   0.00000  -0.00010   0.00000   0.00767   0.00000   0.00084   0.00000
   0.00115   0.00000  -0.00082   0.00000   0.07710   0.00000   0.00240   0.00044   0.00000  -0.00009   0.00000   0.00705   0.00000   0.00025
   0.00000  -0.00140   0.00000   0.00220   0.00000   0.07568   0.00000   0.00000   0.00256   0.00000   0.00084   0.00000   0.00988   0.00000
   0.00074   0.00000  -0.00061   0.00000   0.00241   0.00000   0.07979  -0.00004   0.00000   0.00022   0.00000   0.00025   0.00000   0.00739
 Atom #  1 - L=3 ONLY - Spin component 2
   0.01234   0.00000  -0.00037   0.00000   0.00208   0.00000  -0.00060   0.00546   0.00000  -0.00015   0.00000   0.00087   0.00000  -0.00027
   0.00000   0.02381   0.00000  -0.00041   0.00000   0.01495   0.00000   0.00000   0.01045   0.00000  -0.00020   0.00000   0.00644   0.00000
  -0.00037   0.00000   0.01522   0.00000  -0.00014   0.00000   0.00218  -0.00017   0.00000   0.00673   0.00000  -0.00004   0.00000   0.00088
   0.00000  -0.00041   0.00000   0.01262   0.00000   0.00330   0.00000   0.00000  -0.00020   0.00000   0.00556   0.00000   0.00147   0.00000
   0.00208   0.00000  -0.00014   0.00000   0.01168   0.00000  -0.00019   0.00086   0.00000  -0.00005   0.00000   0.00518   0.00000  -0.00006
   0.00000   0.01495   0.00000   0.00330   0.00000   0.02761   0.00000   0.00000   0.00645   0.00000   0.00146   0.00000   0.01211   0.00000
  -0.00060   0.00000   0.00218   0.00000  -0.00019   0.00000   0.01179  -0.00029   0.00000   0.00089   0.00000  -0.00007   0.00000   0.00525
   0.00546   0.00000  -0.00017   0.00000   0.00086   0.00000  -0.00029   0.00242   0.00000  -0.00007   0.00000   0.00036   0.00000  -0.00013
   0.00000   0.01045   0.00000  -0.00020   0.00000   0.00645   0.00000   0.00000   0.00459   0.00000  -0.00010   0.00000   0.00278   0.00000
  -0.00015   0.00000   0.00673   0.00000  -0.00005   0.00000   0.00089  -0.00007   0.00000   0.00298   0.00000  -0.00001   0.00000   0.00036
   0.00000  -0.00020   0.00000   0.00556   0.00000   0.00146   0.00000   0.00000  -0.00010   0.00000   0.00246   0.00000   0.00065   0.00000
   0.00087   0.00000  -0.00004   0.00000   0.00518   0.00000  -0.00007   0.00036   0.00000  -0.00001   0.00000   0.00230   0.00000  -0.00002
   0.00000   0.00644   0.00000   0.00147   0.00000   0.01211   0.00000   0.00000   0.00278   0.00000   0.00065   0.00000   0.00532   0.00000
  -0.00027   0.00000   0.00088   0.00000  -0.00006   0.00000   0.00525  -0.00013   0.00000   0.00036   0.00000  -0.00002   0.00000   0.00234

 ---------- DFT+U DATA --------------------------------------------------- 

 ====== For Atom     1, occupations for correlated orbitals. lpawu =   3

 Atom   1. Occ. for lpawu and for spin  1 =   6.81750
 Atom   1. Occ. for lpawu and for spin  2 =   0.01957
 => On atom   1,  local Mag. for lpawu is       -6.797930

 == Occupation matrix for correlated orbitals:

 Occupation matrix for spin  1
     0.97442    0.00000    0.00019    0.00000   -0.00144    0.00000   -0.00175
     0.00000    0.97663    0.00000    0.00010    0.00000    0.00469    0.00000
     0.00019    0.00000    0.97070    0.00000    0.00101    0.00000    0.00019
     0.00000    0.00010    0.00000    0.97074    0.00000   -0.00028    0.00000
    -0.00144    0.00000    0.00101    0.00000    0.97442    0.00000   -0.00283
     0.00000    0.00469    0.00000   -0.00028    0.00000    0.97972    0.00000
    -0.00175    0.00000    0.00019    0.00000   -0.00283    0.00000    0.97087


 Occupation matrix for spin  2
     0.00209    0.00000   -0.00006    0.00000    0.00038    0.00000   -0.00010
     0.00000    0.00407    0.00000   -0.00006    0.00000    0.00262    0.00000
    -0.00006    0.00000    0.00258    0.00000   -0.00003    0.00000    0.00041
     0.00000   -0.00006    0.00000    0.00216    0.00000    0.00056    0.00000
     0.00038    0.00000   -0.00003    0.00000    0.00197    0.00000   -0.00004
     0.00000    0.00262    0.00000    0.00056    0.00000    0.00473    0.00000
    -0.00010    0.00000    0.00041    0.00000   -0.00004    0.00000    0.00198



================================================================================

 ----iterations are completed or convergence reached----

 Mean square residual over all n,k,spin=   80.224E-13; max=  21.189E-11
 reduced coordinates (array xred) for   54 atoms
       0.500000000000      0.000000000000      0.166666666700
       0.500000000000      0.000000000000      0.500526668900
       0.500000000000      0.000000000000      0.832806664500
      -0.000000000000      0.500000000000      0.000034181590
      -0.000000000000      0.500000000000      0.333299151810
      -0.000000000000      0.500000000000      0.666666666700
       0.119966255900      0.828256899300      0.166666666700
       0.121023952000      0.828949110900      0.500057098800
       0.121023952000      0.828949110900      0.833276234600
       0.880033744100      0.171743100700      0.166666666700
       0.878976048000      0.171050889100      0.500057098800
       0.878976048000      0.171050889100      0.833276234600
       0.171268739400      0.121136851200      0.000050136282
       0.171268739400      0.121136851200      0.333283197118
       0.171508642700      0.120141088400      0.666666666700
       0.828731260600      0.878863148800      0.000050136282
       0.828731260600      0.878863148800      0.333283197118
       0.828491357300      0.879858911600      0.666666666700
       0.349629693400      0.684243332300      0.001111768500
       0.349629693400      0.684243332300      0.332221564900
       0.350133423050      0.683461912800      0.666666666700
       0.650370306600      0.315756667700      0.001111768500
       0.650370306600      0.315756667700      0.332221564900
       0.649866576950      0.316538087200      0.666666666700
       0.315900120300      0.348681780150      0.166666666700
       0.316687510800      0.348099680650      0.499333280900
       0.316687510800      0.348099680650      0.834000052500
       0.684099879700      0.651318219850      0.166666666700
       0.683312489200      0.651900319350      0.499333280900
       0.683312489200      0.651900319350      0.834000052500
       0.582738291900      0.740077350400      0.001842177300
       0.582738291900      0.740077350400      0.331491156100
       0.583819986300      0.734982152400      0.666666666700
       0.417261708100      0.259922649600      0.001842177300
       0.417261708100      0.259922649600      0.331491156100
       0.416180013700      0.265017847600      0.666666666700
       0.263233929600      0.581926455500      0.166666666700
       0.265689503000      0.582613853300      0.498615324200
       0.265689503000      0.582613853300      0.834718009200
       0.736766070400      0.418073544500      0.166666666700
       0.734310497000      0.417386146700      0.498615324200
       0.734310497000      0.417386146700      0.834718009200
       0.250036360600      0.891819566200      0.003940246000
       0.250036360600      0.891819566200      0.329393087400
       0.243888723800      0.888020271700      0.666666666700
       0.749963639400      0.108180433800      0.003940246000
       0.749963639400      0.108180433800      0.329393087400
       0.756111276200      0.111979728300      0.666666666700
       0.109708275000      0.246770083900      0.166666666700
       0.109596570400      0.246773697100      0.499295788000
       0.109596570400      0.246773697100      0.834037545400
       0.890291725000      0.753229916100      0.166666666700
       0.890403429600      0.753226302900      0.499295788000
       0.890403429600      0.753226302900      0.834037545400
 rms dE/dt=  4.5010E-02; max dE/dt=  1.4723E-01; dE/dt below (all hartree)
    1       0.000000000000      0.000000000000      0.000000000000
    2       0.000000000000      0.000000000000      0.068198327184
    3       0.000000000000      0.000000000000     -0.068198327184
    4       0.000000000000      0.000000000000     -0.013902022115
    5       0.000000000000      0.000000000000      0.013902022115
    6       0.000000000000      0.000000000000      0.000000000000
    7      -0.010384564379     -0.012183484283      0.000000000000
    8       0.000209247641      0.005570034298      0.034049090256
    9       0.000209247641      0.005570034298     -0.034049090256
   10       0.010384564379      0.012183484283      0.000000000000
   11      -0.000209247641     -0.005570034298      0.034049090256
   12      -0.000209247641     -0.005570034298     -0.034049090256
   13      -0.013435720073      0.014849617692     -0.029821267009
   14      -0.013435720073      0.014849617692      0.029821267009
   15       0.011705387559     -0.005631959661      0.000000000000
   16       0.013435720073     -0.014849617692     -0.029821267009
   17       0.013435720073     -0.014849617692      0.029821267009
   18      -0.011705387559      0.005631959661      0.000000000000
   19      -0.014903819824     -0.023871043372     -0.025594762180
   20      -0.014903819824     -0.023871043372      0.025594762180
   21       0.039784360861      0.040121529405      0.000000000000
   22       0.014903819824      0.023871043372     -0.025594762180
   23       0.014903819824      0.023871043372      0.025594762180
   24      -0.039784360861     -0.040121529405      0.000000000000
   25       0.001009472595      0.036314088620      0.000000000000
   26      -0.000249077229     -0.023343951083      0.069978309178
   27      -0.000249077229     -0.023343951083     -0.069978309178
   28      -0.001009472595     -0.036314088620      0.000000000000
   29       0.000249077229      0.023343951083      0.069978309178
   30       0.000249077229      0.023343951083     -0.069978309178
   31      -0.016600616421      0.105820972598      0.142833377479
   32      -0.016600616421      0.105820972598     -0.142833377479
   33       0.021313437828     -0.038900506458      0.000000000000
   34       0.016600616421     -0.105820972598      0.142833377479
   35       0.016600616421     -0.105820972598     -0.142833377479
   36      -0.021313437828      0.038900506458      0.000000000000
   37      -0.019607033488      0.014828478901      0.000000000000
   38      -0.002632118062      0.005124772331     -0.057331303483
   39      -0.002632118062      0.005124772331      0.057331303483
   40       0.019607033488     -0.014828478901      0.000000000000
   41       0.002632118062     -0.005124772331     -0.057331303483
   42       0.002632118062     -0.005124772331      0.057331303483
   43       0.075742453406      0.025903733327      0.147231687283
   44       0.075742453406      0.025903733327     -0.147231687283
   45      -0.033579910833     -0.042747938222      0.000000000000
   46      -0.075742453406     -0.025903733327      0.147231687283
   47      -0.075742453406     -0.025903733327     -0.147231687283
   48       0.033579910833      0.042747938222      0.000000000000
   49       0.037741359321     -0.004978548308      0.000000000000
   50       0.011019981867      0.012584192134     -0.027233419682
   51       0.011019981867      0.012584192134      0.027233419682
   52      -0.037741359321      0.004978548308      0.000000000000
   53      -0.011019981867     -0.012584192134     -0.027233419682
   54      -0.011019981867     -0.012584192134      0.027233419682

 cartesian coordinates (angstrom) at end:
    1      3.92967449397567     0.00001928297144     1.59498588366008
    2      3.92967449397567     0.00001928297144     4.78999782678741
    3      3.92967449397567     0.00001928297144     7.96988924057923
    4      0.00001928297144     3.92951392599986     0.00032711492080
    5      0.00001928297144     3.92951392599986     3.18964465239936
    6      0.00001928297144     3.92951392599986     6.37994353368332
    7      0.94288861440425     6.50929866682140     1.59498588366008
    8      0.95120144387314     6.51473881785633     4.78550408070298
    9      0.95120144387314     6.51473881785633     7.97438298666367
   10      6.91649893948998     1.34976775112120     1.59498588366008
   11      6.90818611002110     1.34432760008628     4.78550408070298
   12      6.90818611002110     1.34432760008628     7.97438298666367
   13      1.34606546542798     0.95202449262477     0.00047979996795
   14      1.34606546542798     0.95202449262477     3.18949196735221
   15      1.34795091078351     0.94419877429768     6.37994353368332
   16      6.51332208846626     6.90704192531784     0.00047979996795
   17      6.51332208846626     6.90704192531784     3.18949196735221
   18      6.51143664311073     6.91486764364493     6.37994353368332
   19      2.74788816547030     5.37750088988959     0.01063953037826
   20      2.74788816547030     5.37750088988959     3.17933223694190
   21      2.75184712244905     5.37135971170180     6.37994353368332
   22      5.11149938842393     2.48156552805302     0.01063953037826
   23      5.11149938842393     2.48156552805302     3.17933223694190
   24      5.10754043144518     2.48770670624081     6.37994353368332
   25      2.48278273801513     2.74031200466969     1.59498588366008
   26      2.48897109229521     2.73573729885301     4.77857720470732
   27      2.48897109229521     2.73573729885301     7.98130986265932
   28      5.37660481587910     5.11875441327292     1.59498588366008
   29      5.37041646159902     5.12332911908959     4.77857720470732
   30      5.37041646159902     5.12332911908959     7.98130986265932
   31      4.57997214646559     5.81631098327944     0.01762948072867
   32      4.57997214646559     5.81631098327944     3.17234228659149
   33      4.58847336375239     5.77626772200255     6.37994353368332
   34      3.27941540742864     2.04275543466317     0.01762948072867
   35      3.27941540742864     2.04275543466317     3.17234228659149
   36      3.27091419014185     2.08279869594006     6.37994353368332
   37      2.06886976073866     4.57338637345467     1.59498588366008
   38      2.08816899556494     4.57878874661178     4.77170641989922
   39      2.08816899556494     4.57878874661178     7.98818064746742
   40      5.79051779315557     3.28568004448794     1.59498588366008
   41      5.77121855832930     3.28027767133083     4.77170641989922
   42      5.77121855832930     3.28027767133083     7.98818064746742
   43      1.96515741149510     7.00884445261211     0.03770782048135
   44      1.96515741149510     7.00884445261211     3.15226394683881
   45      1.91684084190935     6.97898545422925     6.37994353368332
   46      5.89423014239913     0.85022196533050     0.03770782048135
   47      5.89423014239913     0.85022196533050     3.15226394683881
   48      5.94254671198488     0.88008096371335     6.37994353368332
   49      0.86224513701210     1.93937719341348     1.59498588366008
   50      0.86136721171649     1.93940558534492     4.77821840082997
   51      0.86136721171649     1.93940558534492     7.98166866653668
   52      6.99714241688213     5.91968922452913     1.59498588366008
   53      6.99802034217775     5.91966083259769     4.77821840082997
   54      6.99802034217775     5.91966083259769     7.98166866653668

 cartesian forces (hartree/bohr) at end:
    1      0.00000000000000    -0.00000000000000    -0.00000000000000
    2      0.00000000000000    -0.00000000000000    -0.00377108880052
    3      0.00000000000000    -0.00000000000000     0.00377108880052
    4      0.00000000000000    -0.00000000000000     0.00076872501228
    5      0.00000000000000    -0.00000000000000    -0.00076872501228
    6      0.00000000000000    -0.00000000000000    -0.00000000000000
    7      0.00069919826196     0.00082035531114    -0.00000000000000
    8     -0.00001408699606    -0.00037505079684    -0.00188277554938
    9     -0.00001408699606    -0.00037505079684     0.00188277554938
   10     -0.00069919826196    -0.00082035531114    -0.00000000000000
   11      0.00001408699606     0.00037505079684    -0.00188277554938
   12      0.00001408699606     0.00037505079684     0.00188277554938
   13      0.00090464431797    -0.00099988373565     0.00164899420083
   14      0.00090464431797    -0.00099988373565    -0.00164899420083
   15     -0.00078813638999     0.00037922439567    -0.00000000000000
   16     -0.00090464431797     0.00099988373565     0.00164899420083
   17     -0.00090464431797     0.00099988373565    -0.00164899420083
   18      0.00078813638999    -0.00037922439567    -0.00000000000000
   19      0.00100348003325     0.00160732009550     0.00141528575543
   20      0.00100348003325     0.00160732009550    -0.00141528575543
   21     -0.00267870441581    -0.00270151678143    -0.00000000000000
   22     -0.00100348003325    -0.00160732009550     0.00141528575543
   23     -0.00100348003325    -0.00160732009550    -0.00141528575543
   24      0.00267870441581     0.00270151678143    -0.00000000000000
   25     -0.00006795672147    -0.00244516062155    -0.00000000000000
   26      0.00001676288627     0.00157183387790    -0.00386951453086
   27      0.00001676288627     0.00157183387790     0.00386951453086
   28      0.00006795672147     0.00244516062155    -0.00000000000000
   29     -0.00001676288627    -0.00157183387790    -0.00386951453086
   30     -0.00001676288627    -0.00157183387790     0.00386951453086
   31      0.00111776976267    -0.00712532021165    -0.00789810208534
   32      0.00111776976267    -0.00712532021165     0.00789810208534
   33     -0.00143506625923     0.00261932100920    -0.00000000000000
   34     -0.00111776976267     0.00712532021165    -0.00789810208534
   35     -0.00111776976267     0.00712532021165     0.00789810208534
   36      0.00143506625923    -0.00261932100920    -0.00000000000000
   37      0.00132016452922    -0.00099846242230    -0.00000000000000
   38      0.00017722462749    -0.00034507061213     0.00317018679795
   39      0.00017722462749    -0.00034507061213    -0.00317018679795
   40     -0.00132016452922     0.00099846242230    -0.00000000000000
   41     -0.00017722462749     0.00034507061213     0.00317018679795
   42     -0.00017722462749     0.00034507061213    -0.00317018679795
   43     -0.00509980061466    -0.00174416847396    -0.00814131064377
   44     -0.00509980061466    -0.00174416847396     0.00814131064377
   45      0.00226095221113     0.00287836458291    -0.00000000000000
   46      0.00509980061466     0.00174416847396    -0.00814131064377
   47      0.00509980061466     0.00174416847396     0.00814131064377
   48     -0.00226095221113    -0.00287836458291    -0.00000000000000
   49     -0.00254116214120     0.00033523641197    -0.00000000000000
   50     -0.00074198137450    -0.00084733623244     0.00150589681890
   51     -0.00074198137450    -0.00084733623244    -0.00150589681890
   52      0.00254116214120    -0.00033523641197    -0.00000000000000
   53      0.00074198137450     0.00084733623244     0.00150589681890
   54      0.00074198137450     0.00084733623244    -0.00150589681890
 frms,max,avg= 2.6719366E-03 8.1413106E-03   0.000E+00  0.000E+00  0.000E+00 h/b

 cartesian forces (eV/Angstrom) at end:
    1      0.00000000000000    -0.00000000000000    -0.00000000000000
    2      0.00000000000000    -0.00000000000000    -0.19391716660365
    3      0.00000000000000    -0.00000000000000     0.19391716660365
    4      0.00000000000000    -0.00000000000000     0.03952942615871
    5      0.00000000000000    -0.00000000000000    -0.03952942615871
    6      0.00000000000000    -0.00000000000000    -0.00000000000000
    7      0.03595421721026     0.04218436264961    -0.00000000000000
    8     -0.00072438240153    -0.01928588577534    -0.09681620327678
    9     -0.00072438240153    -0.01928588577534     0.09681620327678
   10     -0.03595421721026    -0.04218436264961    -0.00000000000000
[...]
                       0.0000000000E+00  0.0000000000E+00  0.0000000000E+00
                       0.0000000000E+00  0.0000000000E+00  0.0000000000E+00
                       0.0000000000E+00  0.0000000000E+00  0.0000000000E+00
                       0.0000000000E+00  0.0000000000E+00  0.0000000000E+00
                       0.0000000000E+00  0.0000000000E+00  0.0000000000E+00
                       0.0000000000E+00  0.0000000000E+00  0.0000000000E+00
           strten      2.2561021618E-03  2.2551497556E-03  2.3070896970E-03
                       0.0000000000E+00  0.0000000000E+00  1.3676014832E-06
           symrel      1  0  0   0  1  0   0  0  1      -1  0  0   0 -1  0   0  0 -1
                      -1  0  0   0 -1  0   0  0  1       1  0  0   0  1  0   0  0 -1
            tnons      0.0000000  0.0000000  0.0000000    -0.0000000  0.0000000  0.3333333
                      -0.0000000  0.0000000  0.0000000     0.0000000  0.0000000  0.3333333
           toldfe      1.00000000E-05 Hartree
            typat      1  2  2  2  2  2  3  3  3  3  3  3  3  3  3  3  3  3  4  4
                       4  4  4  4  4  4  4  4  4  4  5  5  5  5  5  5  5  5  5  5
                       5  5  6  6  6  6  6  6  6  6  6  6  6  6
            upawu      2.57245278E-01  0.00000000E+00  0.00000000E+00  0.00000000E+00  0.00000000E+00  0.00000000E+00 Hartree
          usepawu           1
           useylm           1
         wfoptalg         114
           xangst      3.9296744940E+00  1.9282971442E-05  1.5949858837E+00
                       3.9296744940E+00  1.9282971442E-05  4.7899978268E+00
                       3.9296744940E+00  1.9282971442E-05  7.9698892406E+00
                       1.9282971441E-05  3.9295139260E+00  3.2711492080E-04
                       1.9282971441E-05  3.9295139260E+00  3.1896446524E+00
                       1.9282971441E-05  3.9295139260E+00  6.3799435337E+00
                       9.4288861440E-01  6.5092986668E+00  1.5949858837E+00
                       9.5120144387E-01  6.5147388179E+00  4.7855040807E+00
                       9.5120144387E-01  6.5147388179E+00  7.9743829867E+00
                       6.9164989395E+00  1.3497677511E+00  1.5949858837E+00
                       6.9081861100E+00  1.3443276001E+00  4.7855040807E+00
                       6.9081861100E+00  1.3443276001E+00  7.9743829867E+00
                       1.3460654654E+00  9.5202449262E-01  4.7979996795E-04
                       1.3460654654E+00  9.5202449262E-01  3.1894919674E+00
                       1.3479509108E+00  9.4419877430E-01  6.3799435337E+00
                       6.5133220885E+00  6.9070419253E+00  4.7979996795E-04
                       6.5133220885E+00  6.9070419253E+00  3.1894919674E+00
                       6.5114366431E+00  6.9148676436E+00  6.3799435337E+00
                       2.7478881655E+00  5.3775008899E+00  1.0639530378E-02
                       2.7478881655E+00  5.3775008899E+00  3.1793322369E+00
                       2.7518471224E+00  5.3713597117E+00  6.3799435337E+00
                       5.1114993884E+00  2.4815655281E+00  1.0639530378E-02
                       5.1114993884E+00  2.4815655281E+00  3.1793322369E+00
                       5.1075404314E+00  2.4877067062E+00  6.3799435337E+00
                       2.4827827380E+00  2.7403120047E+00  1.5949858837E+00
                       2.4889710923E+00  2.7357372989E+00  4.7785772047E+00
                       2.4889710923E+00  2.7357372989E+00  7.9813098627E+00
                       5.3766048159E+00  5.1187544133E+00  1.5949858837E+00
                       5.3704164616E+00  5.1233291191E+00  4.7785772047E+00
                       5.3704164616E+00  5.1233291191E+00  7.9813098627E+00
                       4.5799721465E+00  5.8163109833E+00  1.7629480729E-02
                       4.5799721465E+00  5.8163109833E+00  3.1723422866E+00
                       4.5884733638E+00  5.7762677220E+00  6.3799435337E+00
                       3.2794154074E+00  2.0427554347E+00  1.7629480729E-02
                       3.2794154074E+00  2.0427554347E+00  3.1723422866E+00
                       3.2709141901E+00  2.0827986959E+00  6.3799435337E+00
                       2.0688697607E+00  4.5733863735E+00  1.5949858837E+00
                       2.0881689956E+00  4.5787887466E+00  4.7717064199E+00
                       2.0881689956E+00  4.5787887466E+00  7.9881806475E+00
                       5.7905177932E+00  3.2856800445E+00  1.5949858837E+00
                       5.7712185583E+00  3.2802776713E+00  4.7717064199E+00
                       5.7712185583E+00  3.2802776713E+00  7.9881806475E+00
                       1.9651574115E+00  7.0088444526E+00  3.7707820481E-02
                       1.9651574115E+00  7.0088444526E+00  3.1522639468E+00
                       1.9168408419E+00  6.9789854542E+00  6.3799435337E+00
                       5.8942301424E+00  8.5022196533E-01  3.7707820481E-02
                       5.8942301424E+00  8.5022196533E-01  3.1522639468E+00
                       5.9425467120E+00  8.8008096371E-01  6.3799435337E+00
                       8.6224513701E-01  1.9393771934E+00  1.5949858837E+00
                       8.6136721172E-01  1.9394055853E+00  4.7782184008E+00
                       8.6136721172E-01  1.9394055853E+00  7.9816686665E+00
                       6.9971424169E+00  5.9196892245E+00  1.5949858837E+00
                       6.9980203422E+00  5.9196608326E+00  4.7782184008E+00
                       6.9980203422E+00  5.9196608326E+00  7.9816686665E+00
            xcart      7.4260085850E+00  3.6439535053E-05  3.0140865059E+00
                       7.4260085850E+00  3.6439535053E-05  9.0517840697E+00
                       7.4260085850E+00  3.6439535053E-05  1.5060907974E+01
                       3.6439535052E-05  7.4257051555E+00  6.1815761428E-04
                       3.6439535052E-05  7.4257051555E+00  6.0275548543E+00
                       3.6439535052E-05  7.4257051555E+00  1.2056346022E+01
                       1.7818012550E+00  1.2300791797E+01  3.0140865059E+00
                       1.7975102261E+00  1.2311072193E+01  9.0432921203E+00
                       1.7975102261E+00  1.2311072193E+01  1.5069399924E+01
                       1.3070288794E+01  2.5506913926E+00  3.0140865059E+00
                       1.3054579823E+01  2.5404109970E+00  9.0432921203E+00
                       1.3054579823E+01  2.5404109970E+00  1.5069399924E+01
                       2.5436950866E+00  1.7990655629E+00  9.0669053798E-04
                       2.5436950866E+00  1.7990655629E+00  6.0272663213E+00
                       2.5472580620E+00  1.7842770984E+00  1.2056346022E+01
                       1.2308394962E+01  1.3052417627E+01  9.0669053798E-04
                       1.2308394962E+01  1.3052417627E+01  6.0272663213E+00
                       1.2304831987E+01  1.3067206092E+01  1.2056346022E+01
                       5.1927560765E+00  1.0162003961E+01  2.0105798597E-02
                       5.1927560765E+00  1.0162003961E+01  6.0080672133E+00
                       5.2002374210E+00  1.0150398816E+01  1.2056346022E+01
                       9.6593339725E+00  4.6894792288E+00  2.0105798597E-02
                       9.6593339725E+00  4.6894792288E+00  6.0080672133E+00
                       9.6518526281E+00  4.7010843737E+00  1.2056346022E+01
                       4.6917794223E+00  5.1784392075E+00  3.0140865059E+00
                       4.7034737171E+00  5.1697942664E+00  9.0302022217E+00
                       4.7034737171E+00  5.1697942664E+00  1.5082489822E+01
                       1.0160310627E+01  9.6730439826E+00  3.0140865059E+00
                       1.0148616332E+01  9.6816889237E+00  9.0302022217E+00
                       1.0148616332E+01  9.6816889237E+00  1.5082489822E+01
                       8.6548930531E+00  1.0991234862E+01  3.3314890442E-02
                       8.6548930531E+00  1.0991234862E+01  5.9948581214E+00
                       8.6709580255E+00  1.0915564065E+01  1.2056346022E+01
                       6.1971969960E+00  3.8602483280E+00  3.3314890442E-02
                       6.1971969960E+00  3.8602483280E+00  5.9948581214E+00
                       6.1811320235E+00  3.9359191253E+00  1.2056346022E+01
                       3.9095972524E+00  8.6424477457E+00  3.0140865059E+00
                       3.9460675208E+00  8.6526567514E+00  9.0172183201E+00
                       3.9460675208E+00  8.6526567514E+00  1.5095473724E+01
                       1.0942492797E+01  6.2090354444E+00  3.0140865059E+00
                       1.0906022528E+01  6.1988264386E+00  9.0172183201E+00
                       1.0906022528E+01  6.1988264386E+00  1.5095473724E+01
                       3.7136093157E+00  1.3244796523E+01  7.1257453778E-02
                       3.7136093157E+00  1.3244796523E+01  5.9569155581E+00
                       3.6223042315E+00  1.3188371194E+01  1.2056346022E+01
                       1.1138480733E+01  1.6066866666E+00  7.1257453778E-02
                       1.1138480733E+01  1.6066866666E+00  5.9569155581E+00
                       1.1229785818E+01  1.6631119962E+00  1.2056346022E+01
                       1.6294071684E+00  3.6648917639E+00  3.0140865059E+00
                       1.6277481300E+00  3.6649454169E+00  9.0295241807E+00
                       1.6277481300E+00  3.6649454169E+00  1.5083167863E+01
                       1.3222682881E+01  1.1186591426E+01  3.0140865059E+00
                       1.3224341919E+01  1.1186537773E+01  9.0295241807E+00
                       1.3224341919E+01  1.1186537773E+01  1.5083167863E+01
             xred      5.0000000000E-01  3.0715467997E-22  1.6666666670E-01
                       5.0000000000E-01  3.0715467997E-22  5.0052666890E-01
                       5.0000000000E-01  3.0715467997E-22  8.3280666450E-01
                      -5.5511151231E-17  5.0000000000E-01  3.4181589966E-05
                      -5.5511151231E-17  5.0000000000E-01  3.3329915181E-01
                      -5.5511151231E-17  5.0000000000E-01  6.6666666670E-01
                       1.1996625590E-01  8.2825689930E-01  1.6666666670E-01
                       1.2102395200E-01  8.2894911090E-01  5.0005709880E-01
                       1.2102395200E-01  8.2894911090E-01  8.3327623460E-01
                       8.8003374410E-01  1.7174310070E-01  1.6666666670E-01
                       8.7897604800E-01  1.7105088910E-01  5.0005709880E-01
                       8.7897604800E-01  1.7105088910E-01  8.3327623460E-01
                       1.7126873940E-01  1.2113685120E-01  5.0136281556E-05
                       1.7126873940E-01  1.2113685120E-01  3.3328319712E-01
                       1.7150864270E-01  1.2014108840E-01  6.6666666670E-01
                       8.2873126060E-01  8.7886314880E-01  5.0136281556E-05
                       8.2873126060E-01  8.7886314880E-01  3.3328319712E-01
                       8.2849135730E-01  8.7985891160E-01  6.6666666670E-01
                       3.4962969340E-01  6.8424333230E-01  1.1117685000E-03
                       3.4962969340E-01  6.8424333230E-01  3.3222156490E-01
                       3.5013342305E-01  6.8346191280E-01  6.6666666670E-01
                       6.5037030660E-01  3.1575666770E-01  1.1117685000E-03
                       6.5037030660E-01  3.1575666770E-01  3.3222156490E-01
                       6.4986657695E-01  3.1653808720E-01  6.6666666670E-01
                       3.1590012030E-01  3.4868178015E-01  1.6666666670E-01
                       3.1668751080E-01  3.4809968065E-01  4.9933328090E-01
                       3.1668751080E-01  3.4809968065E-01  8.3400005250E-01
                       6.8409987970E-01  6.5131821985E-01  1.6666666670E-01
                       6.8331248920E-01  6.5190031935E-01  4.9933328090E-01
                       6.8331248920E-01  6.5190031935E-01  8.3400005250E-01
                       5.8273829190E-01  7.4007735040E-01  1.8421773000E-03
                       5.8273829190E-01  7.4007735040E-01  3.3149115610E-01
                       5.8381998630E-01  7.3498215240E-01  6.6666666670E-01
                       4.1726170810E-01  2.5992264960E-01  1.8421773000E-03
                       4.1726170810E-01  2.5992264960E-01  3.3149115610E-01
                       4.1618001370E-01  2.6501784760E-01  6.6666666670E-01
                       2.6323392960E-01  5.8192645550E-01  1.6666666670E-01
                       2.6568950300E-01  5.8261385330E-01  4.9861532420E-01
                       2.6568950300E-01  5.8261385330E-01  8.3471800920E-01
                       7.3676607040E-01  4.1807354450E-01  1.6666666670E-01
                       7.3431049700E-01  4.1738614670E-01  4.9861532420E-01
                       7.3431049700E-01  4.1738614670E-01  8.3471800920E-01
                       2.5003636060E-01  8.9181956620E-01  3.9402460000E-03
                       2.5003636060E-01  8.9181956620E-01  3.2939308740E-01
                       2.4388872380E-01  8.8802027170E-01  6.6666666670E-01
                       7.4996363940E-01  1.0818043380E-01  3.9402460000E-03
                       7.4996363940E-01  1.0818043380E-01  3.2939308740E-01
                       7.5611127620E-01  1.1197972830E-01  6.6666666670E-01
                       1.0970827500E-01  2.4677008390E-01  1.6666666670E-01
                       1.0959657040E-01  2.4677369710E-01  4.9929578800E-01
                       1.0959657040E-01  2.4677369710E-01  8.3403754540E-01
                       8.9029172500E-01  7.5322991610E-01  1.6666666670E-01
                       8.9040342960E-01  7.5322630290E-01  4.9929578800E-01
                       8.9040342960E-01  7.5322630290E-01  8.3403754540E-01
            znucl       63.00000   38.00000    3.00000   13.00000    7.00000    8.00000

================================================================================


- Timing analysis has been suppressed with timopt=0



================================================================================

 Suggested references for the acknowledgment of ABINIT usage.

 The users of ABINIT have little formal obligations with respect to the ABINIT group
 (those specified in the GNU General Public License, http://www.gnu.org/copyleft/gpl.txt).
 However, it is common practice in the scientific literature,
 to acknowledge the efforts of people that have made the research possible.
 In this spirit, please find below suggested citations of work written by ABINIT developers,
 corresponding to implementations inside of ABINIT that you have used in the present run.
 Note also that it will be of great value to readers of publications presenting these results,
 to read papers enabling them to understand the theoretical formalism and details
 of the ABINIT implementation.
 For information on why they are suggested, see also https://docs.abinit.org/theory/acknowledgments.
-
- [1] Gamma and beta cerium: DFT+U calculations of ground-state parameters.
- B. Amadon, F. Jollet and M. Torrent, Phys. Rev. B 77, 155104 (2008).
- Comment: DFT+U calculations, usepawu/=0. Strong suggestion to cite this paper.
- DOI and bibtex: see https://docs.abinit.org/theory/bibliography/#amadon2008a
-
- [2] Implementation of the Projector Augmented-Wave Method in the ABINIT code.
- M. Torrent, F. Jollet, F. Bottin, G. Zerah, and X. Gonze Comput. Mat. Science 42, 337, (2008).
- Comment: PAW calculations. Strong suggestion to cite this paper.
- DOI and bibtex: see https://docs.abinit.org/theory/bibliography/#torrent2008
-
- [3] Libxc: A library of exchange and correlation functionals for density functional theory.
- M.A.L. Marques, M.J.T. Oliveira, T. Burnus, Computer Physics Communications 183, 2227 (2012).
- Comment: to be cited when LibXC is used (negative value of ixc)
- Strong suggestion to cite this paper.
- DOI and bibtex: see https://docs.abinit.org/theory/bibliography/#marques2012
-
- [4] Large scale ab initio calculations based on three levels of parallelization
- F. Bottin, S. Leroux, A. Knyazev, G. Zerah, Comput. Mat. Science 42, 329, (2008).
- Comment: in case LOBPCG algorithm is used (wfoptalg=4/14/114).
- Strong suggestion to cite this paper in your publications.
- This paper is also available at http://www.arxiv.org/abs/0707.3405
- DOI and bibtex: see https://docs.abinit.org/theory/bibliography/#bottin2008
-
- [5] The Abinit project: Impact, environment and recent developments.
- Computer Phys. Comm. 248, 107042 (2020).
- X.Gonze, B. Amadon, G. Antonius, F.Arnardi, L.Baguet, J.-M.Beuken,
- J.Bieder, F.Bottin, J.Bouchet, E.Bousquet, N.Brouwer, F.Bruneval,
- G.Brunin, T.Cavignac, J.-B. Charraud, Wei Chen, M.Cote, S.Cottenier,
- J.Denier, G.Geneste, Ph.Ghosez, M.Giantomassi, Y.Gillet, O.Gingras,
- D.R.Hamann, G.Hautier, Xu He, N.Helbig, N.Holzwarth, Y.Jia, F.Jollet,
- W.Lafargue-Dit-Hauret, K.Lejaeghere, M.A.L.Marques, A.Martin, C.Martins,
- H.P.C. Miranda, F.Naccarato, K. Persson, G.Petretto, V.Planes, Y.Pouillon,
- S.Prokhorenko, F.Ricci, G.-M.Rignanese, A.H.Romero, M.M.Schmitt, M.Torrent,
- M.J.van Setten, B.Van Troeye, M.J.Verstraete, G.Zerah and J.W.Zwanzig
- Comment: the fifth generic paper describing the ABINIT project.
- Note that a version of this paper, that is not formatted for Computer Phys. Comm. 
- is available at https://www.abinit.org/sites/default/files/ABINIT20.pdf .
- The licence allows the authors to put it on the Web.
- DOI and bibtex: see https://docs.abinit.org/theory/bibliography/#gonze2020
-
- [6] ABINIT: Overview, and focus on selected capabilities
- J. Chem. Phys. 152, 124102 (2020).
- A. Romero, D.C. Allan, B. Amadon, G. Antonius, T. Applencourt, L.Baguet,
- J.Bieder, F.Bottin, J.Bouchet, E.Bousquet, F.Bruneval,
- G.Brunin, D.Caliste, M.Cote,
- J.Denier, C. Dreyer, Ph.Ghosez, M.Giantomassi, Y.Gillet, O.Gingras,
- D.R.Hamann, G.Hautier, F.Jollet, G. Jomard,
- A.Martin, 
- H.P.C. Miranda, F.Naccarato, G.Petretto, N.A. Pike, V.Planes,
- S.Prokhorenko, T. Rangel, F.Ricci, G.-M.Rignanese, M.Royo, M.Stengel, M.Torrent,
- M.J.van Setten, B.Van Troeye, M.J.Verstraete, J.Wiktor, J.W.Zwanziger, and X.Gonze.
- Comment: a global overview of ABINIT, with focus on selected capabilities .
- Note that a version of this paper, that is not formatted for J. Chem. Phys 
- is available at https://www.abinit.org/sites/default/files/ABINIT20_JPC.pdf .
- The licence allows the authors to put it on the Web.
- DOI and bibtex: see https://docs.abinit.org/theory/bibliography/#romero2020
-
- [7] Recent developments in the ABINIT software package.
- Computer Phys. Comm. 205, 106 (2016).
- X.Gonze, F.Jollet, F.Abreu Araujo, D.Adams, B.Amadon, T.Applencourt,
- C.Audouze, J.-M.Beuken, J.Bieder, A.Bokhanchuk, E.Bousquet, F.Bruneval
- D.Caliste, M.Cote, F.Dahm, F.Da Pieve, M.Delaveau, M.Di Gennaro,
- B.Dorado, C.Espejo, G.Geneste, L.Genovese, A.Gerossier, M.Giantomassi,
- Y.Gillet, D.R.Hamann, L.He, G.Jomard, J.Laflamme Janssen, S.Le Roux,
- A.Levitt, A.Lherbier, F.Liu, I.Lukacevic, A.Martin, C.Martins,
- M.J.T.Oliveira, S.Ponce, Y.Pouillon, T.Rangel, G.-M.Rignanese,
- A.H.Romero, B.Rousseau, O.Rubel, A.A.Shukri, M.Stankovski, M.Torrent,
- M.J.Van Setten, B.Van Troeye, M.J.Verstraete, D.Waroquier, J.Wiktor,
- B.Xu, A.Zhou, J.W.Zwanziger.
- Comment: the fourth generic paper describing the ABINIT project.
- Note that a version of this paper, that is not formatted for Computer Phys. Comm. 
- is available at https://www.abinit.org/sites/default/files/ABINIT16.pdf .
- The licence allows the authors to put it on the Web.
- DOI and bibtex: see https://docs.abinit.org/theory/bibliography/#gonze2016
-
- Proc.   0 individual time (sec): cpu=         17.8  wall=         18.9

================================================================================

 Calculation completed.
.Delivered   0 WARNINGs and   0 COMMENTs to log file.
+Overall time at end (sec) : cpu=       2207.7  wall=       2265.7
