  ABINIT 9.10.5
  
-instrng: 236 lines of input have been read from file /gpfs/projects/acad/leds/DataBase_examples/adding_entry_to_DB/flow_lumi/w0/t0/run.abi


.Version 9.10.5 of ABINIT 
.(MPI version, prepared for a x86_64_linux_gnu12.3 computer) 

.Copyright (C) 1998-2022 ABINIT group . 
 ABINIT comes with ABSOLUTELY NO WARRANTY.
 It is free software, and you are welcome to redistribute it
 under certain conditions (GNU General Public License,
 see ~abinit/COPYING or http://www.gnu.org/copyleft/gpl.txt).

 ABINIT is a project of the Universite Catholique de Louvain,
 Corning Inc. and other collaborators, see ~abinit/doc/developers/contributors.txt .
 Please read https://docs.abinit.org/theory/acknowledgments for suggested
 acknowledgments of the ABINIT effort.
 For more information, see https://www.abinit.org .

.Starting date : Fri 15 Mar 2024.
- ( at 14h46 )
  

 ++++++++++++++++++++++++++++++++++++++++++++++++++++++++++++++++++++++++++++++

 === Build Information === 
  Version       : 9.10.5
  Build target  : x86_64_linux_gnu12.3
  Build date    : 20240314

 === Compiler Suite === 
  C compiler       : gnu12.3
  C++ compiler     : gnu12.3
  Fortran compiler : gnu12.3
  CFLAGS           : -g -O2
  CXXFLAGS         : -g -O2 -mtune=native -march=native
  FCFLAGS          : -g -ffree-line-length-none -fallow-argument-mismatch     -I/gpfs/so ...
  FC_LDFLAGS       : 

 === Optimizations === 
  Debug level        : basic
  Optimization level : standard
  Architecture       : amd_epyc

 === Multicore === 
  Parallel build : yes
  Parallel I/O   : yes
  openMP support : no
  GPU support    : 

 === Connectors / Fallbacks === 
  LINALG flavor  : openblas
  FFT flavor     : fftw3
  HDF5           : yes
  NetCDF         : yes
  NetCDF Fortran : yes
  LibXC          : yes
  Wannier90      : no

 === Experimental features === 
  Exports             : 
  GW double-precision : 

 ++++++++++++++++++++++++++++++++++++++++++++++++++++++++++++++++++++++++++++++


 ++++++++++++++++++++++++++++++++++++++++++++++++++++++++++++++++++++++++++++++
 Default optimizations:
   -O2 -mtune=native -march=native


 Optimizations for 43_ptgroups:
   -O0


 ++++++++++++++++++++++++++++++++++++++++++++++++++++++++++++++++++++++++++++++


 ++++++++++++++++++++++++++++++++++++++++++++++++++++++++++++++++++++++++++++++
 CPP options activated during the build:

                    CC_GNU                   CXX_GNU                    FC_GNU
 
 HAVE_FC_ALLOCATABLE_DT...             HAVE_FC_ASYNC         HAVE_FC_BACKTRACE
 
  HAVE_FC_COMMAND_ARGUMENT      HAVE_FC_COMMAND_LINE        HAVE_FC_CONTIGUOUS
 
           HAVE_FC_CPUTIME              HAVE_FC_EXIT             HAVE_FC_FLUSH
 
             HAVE_FC_GAMMA            HAVE_FC_GETENV   HAVE_FC_IEEE_ARITHMETIC
 
   HAVE_FC_IEEE_EXCEPTIONS          HAVE_FC_INT_QUAD             HAVE_FC_IOMSG
 
     HAVE_FC_ISO_C_BINDING  HAVE_FC_ISO_FORTRAN_2008        HAVE_FC_LONG_LINES
 
        HAVE_FC_MOVE_ALLOC  HAVE_FC_ON_THE_FLY_SHAPE           HAVE_FC_PRIVATE
 
         HAVE_FC_PROTECTED           HAVE_FC_SHIFTLR         HAVE_FC_STREAM_IO
 
            HAVE_FC_SYSTEM                HAVE_FFTW3          HAVE_FORTRAN2003
 
                 HAVE_HDF5             HAVE_HDF5_MPI        HAVE_LIBPAW_ABINIT
 
      HAVE_LIBTETRA_ABINIT                HAVE_LIBXC         HAVE_LINALG_AXPBY
 
        HAVE_LINALG_GEMM3M HAVE_LINALG_OPENBLAS_T...     HAVE_LINALG_SCALAPACK
 
                  HAVE_MPI                 HAVE_MPI2         HAVE_MPI2_INPLACE
 
       HAVE_MPI_IALLGATHER       HAVE_MPI_IALLREDUCE        HAVE_MPI_IALLTOALL
 
       HAVE_MPI_IALLTOALLV           HAVE_MPI_IBCAST         HAVE_MPI_IGATHERV
 
        HAVE_MPI_INTEGER16               HAVE_MPI_IO HAVE_MPI_TYPE_CREATE_S...
 
               HAVE_NETCDF       HAVE_NETCDF_FORTRAN   HAVE_NETCDF_FORTRAN_MPI
 
           HAVE_NETCDF_MPI             HAVE_OS_LINUX         HAVE_TIMER_ABINIT
 
 ++++++++++++++++++++++++++++++++++++++++++++++++++++++++++++++++++++++++++++++

- input  file    -> /gpfs/projects/acad/leds/DataBase_examples/adding_entry_to_DB/flow_lumi/w0/t0/run.abi
- output file    -> /gpfs/projects/acad/leds/DataBase_examples/adding_entry_to_DB/flow_lumi/w0/t0/run.abo
- root for input  files -> indata/in
- root for output files -> outdata/out

 Netcdf library supports MPI-IO
-instrng: 236 lines of input have been read from file /gpfs/projects/acad/leds/DataBase_examples/adding_entry_to_DB/flow_lumi/w0/t0/run.abi

 For atom type 1, psp file is /gpfs/home/acad/ucl-modl/jbouq/paw-sr-11_pbe_standard_xml/Eu.xml
 For atom type 2, psp file is /gpfs/home/acad/ucl-modl/jbouq/paw-sr-11_pbe_standard_xml/Sr.xml
 For atom type 3, psp file is /gpfs/home/acad/ucl-modl/jbouq/paw-sr-11_pbe_standard_xml/Li.xml
 For atom type 4, psp file is /gpfs/home/acad/ucl-modl/jbouq/paw-sr-11_pbe_standard_xml/Al.xml
 For atom type 5, psp file is /gpfs/home/acad/ucl-modl/jbouq/paw-sr-11_pbe_standard_xml/N.xml
 For atom type 6, psp file is /gpfs/home/acad/ucl-modl/jbouq/paw-sr-11_pbe_standard_xml/O.xml
- inpspheads : Reading pseudopotential header in XML form from 
-   /gpfs/home/acad/ucl-modl/jbouq/paw-sr-11_pbe_standard_xml/Eu.xml
- inpspheads : Reading pseudopotential header in XML form from 
-   /gpfs/home/acad/ucl-modl/jbouq/paw-sr-11_pbe_standard_xml/Sr.xml
- inpspheads : Reading pseudopotential header in XML form from 
-   /gpfs/home/acad/ucl-modl/jbouq/paw-sr-11_pbe_standard_xml/Li.xml
- inpspheads : Reading pseudopotential header in XML form from 
-   /gpfs/home/acad/ucl-modl/jbouq/paw-sr-11_pbe_standard_xml/Al.xml
- inpspheads : Reading pseudopotential header in XML form from 
-   /gpfs/home/acad/ucl-modl/jbouq/paw-sr-11_pbe_standard_xml/N.xml
- inpspheads : Reading pseudopotential header in XML form from 
-   /gpfs/home/acad/ucl-modl/jbouq/paw-sr-11_pbe_standard_xml/O.xml

 inpspheads: deduce mpsang = 4, n1xccc = 1.

======================================================= 
 invars1m : enter jdtset= 0

 symlatt: the Bravais lattice is tP (primitive tetragonal)
  xred   is defined in input file
 ingeo: takes atomic coordinates from input array xred

--- !COMMENT
src_file: m_ingeo.F90
src_line: 902
message: |
    The tolerance on symmetries =   1.000E-05 is bigger than 1.0e-8.
    In order to avoid spurious effects, the atomic coordinates have been
    symmetrized before storing them in the dataset internal variable.
    So, do not be surprised by the fact that your input variables (xcart, xred, ...)
    do not correspond exactly to the ones echoed by ABINIT, the latter being used to do the calculations.
    This is not a problem per se.
    Still, in order to avoid this symmetrization (e.g. for specific debugging/development), decrease tolsym to 1.0e-8 or lower,
    or (much preferred) use input primitive vectors that are accurate to better than 1.0e-8.
    This message will only be printed once, even if there are other datasets where tolsym is bigger than 1.0e-8.
...


 symlatt: the Bravais lattice is tP (primitive tetragonal)

 symlatt: the Bravais lattice is tP (primitive tetragonal)

--- !COMMENT
src_file: m_symfind.F90
src_line: 1014
message: |
    The Bravais lattice determined only from the primitive
    vectors, bravais(1)=  4, is more symmetric
    than the real one, iholohedry=  2, obtained by taking into
    account the atomic positions. Start deforming the primitive vector set.
...


 symlatt: the Bravais lattice is mP (primitive monoclinic)
 symspgr: spgroup=  10  P2/m   (=C2h^1)
 Perdew, Burke & Ernzerhof
 J. P. Perdew, K. Burke, and M. Ernzerhof.,  Phys. Rev. Lett. 77, 3865 (1996)
 J. P. Perdew, K. Burke, and M. Ernzerhof.,  Phys. Rev. Lett. 78, 1396 (1997)
 Perdew, Burke & Ernzerhof
 J. P. Perdew, K. Burke, and M. Ernzerhof.,  Phys. Rev. Lett. 77, 3865 (1996)
 J. P. Perdew, K. Burke, and M. Ernzerhof.,  Phys. Rev. Lett. 78, 1396 (1997)


--- !COMMENT
src_file: m_invars2.F90
src_line: 2539
message: |
    Found ionmov /= 0 without ntime in the input. ntime has been set automatically to 1000
...

 invars2: reading occ(nband*nkpt*nsppol) explicitly
 LMac pawujat is:            1
 getmpw sequential formula gave: 4769

 ====================================================================================================
 Searching for all possible proc distributions for this input with #CPUs<=128:

 ~~~~~~~~~~~~~~~~~~~~~~~~~~~~~~~~~~~~~~~~~~~~~~~~~~~~~~~~~~~~~~~~~~~~~~~~~~~~~
 |       np_spkpt|       npfft|      npband|      bandpp|  #MPI(proc)|    WEIGHT|
 |    1<<    2|    1<<   12|    1<<  128|    1<<  180|    1<<  128|  <=   128|
 ~~~~~~~~~~~~~~~~~~~~~~~~~~~~~~~~~~~~~~~~~~~~~~~~~~~~~~~~~~~~~~~~~~~~~~~~~~~~~
 |           2|           6|          10|           6|         120|    84.042|
 |           2|           4|          15|           4|         120|    83.294|
 |           1|           8|          15|           4|         120|    83.114|
 |           1|          12|          10|           6|         120|    81.977|
 |           2|          12|           5|          12|         120|    81.836|
 |           2|          10|           6|          10|         120|    81.754|
 |           1|           4|          30|           2|         120|    80.910|
 |           2|           9|           6|          10|         108|    73.410|
 |           2|          10|           6|           6|         120|    71.635|
 |           2|           2|          30|           2|         120|    71.339|
 ~~~~~~~~~~~~~~~~~~~~~~~~~~~~~~~~~~~~~~~~~~~~~~~~~~~~~~~~~~~~~~~~~~~~~~~~~~~~~
 Only the best possible choices for nproc are printed...

 >>> Possible (best) choices for the number of bands (nband) are:
     with: np_spkpt=2 npfft=6
     nband=   180 using    120 CPUs =   120 MPI x  1 threads (npband=   10)
     nband=   176 using     96 CPUs =    96 MPI x  1 threads (npband=    8)
     nband=   184 using     96 CPUs =    96 MPI x  1 threads (npband=    8)
     nband=   182 using     84 CPUs =    84 MPI x  1 threads (npband=    7)
     nband=   183 using     36 CPUs =    36 MPI x  1 threads (npband=    3)
     nband=   177 using     36 CPUs =    36 MPI x  1 threads (npband=    3)
     nband=   178 using     24 CPUs =    24 MPI x  1 threads (npband=    2)
     nband=   179 using     12 CPUs =    12 MPI x  1 threads (npband=    1)
     nband=   181 using     12 CPUs =    12 MPI x  1 threads (npband=    1)
 >>> The present nband value (   180) seems to be a good choice!
 ====================================================================================================


getng is called for the coarse grid:
 For input ecut=  1.322500E+01 best grid ngfft=      50      54      60
       max ecut=  1.347862E+01

 ==== FFT mesh ====
  FFT mesh divisions ........................    50   54   60
  Augmented FFT divisions ...................    51   55   60
  FFT algorithm .............................   312
  FFT cache size ............................    16
 getmpw: optimal value of mpw= 76
getng is called for the fine grid:
 Using supplied coarse mesh as initial guess.
 For input ecut=  2.645000E+01 best grid ngfft=      72      72      90
       max ecut=  2.794927E+01

 ==== FFT mesh ====
  FFT mesh divisions ........................    72   72   90
  Augmented FFT divisions ...................    73   73   90
  FFT algorithm .............................   312
  FFT cache size ............................    16

 Symmetries : space group P2/m (# 10); Bravais mP (primitive monocl.)

 getdim_nloc: deduce lmnmax  =  32, lnmax  =   8,
                      lmnmaxso=  32, lnmaxso=   8.
memory: analysis of memory needs
================================================================================
 Values of the parameters that define the memory need of the present run
     intxc =       0    ionmov =       2      iscf =      17    lmnmax =      32
     lnmax =       8     mgfft =      60  mpssoang =       4    mqgrid =    4200
     natom =      54  nloc_mem =       2    nspden =       2   nspinor =       1
    nsppol =       2      nsym =       4    n1xccc =       1    ntypat =       6
    occopt =       2   xclevel =       2
-    mband =         180        mffmem =           1         mkmem =           1
       mpw =          76          nfft =       27000          nkpt =           1
Pmy_natom=         3
 PAW method is used; the additional fine FFT grid is defined by:
   mgfftf=        90    nfftf =     77760
================================================================================
P This job should need less than                      74.144 Mbytes of memory.
  Rough estimation (10% accuracy) of disk space for files :
_ WF disk file :      2.507 Mbytes ; DEN or POT disk file :      1.189 Mbytes.
================================================================================

 Biggest array : f_fftgr(disk), with     18.9864 MBytes.
 memana : allocated an array of     18.986 Mbytes, for testing purposes.
 memana: allocated      74.144Mbytes, for testing purposes. 
 The job will continue.
--------------------------------------------------------------------------------
------------- Echo of variables that govern the present computation ------------
--------------------------------------------------------------------------------
-
- outvars: echo of selected default values                                      
-   iomode0 =  0 , fftalg0 =312 , wfoptalg0 = 10
-
- outvars: echo of global parameters not present in the input file              
-  max_nthreads =    0
-
 -outvars: echo values of preprocessed input variables --------
 
 These variables are accessible in NetCDF format (outdata/out_OUT.nc)

-          iomode           1
            acell      1.0000000000E+00  1.0000000000E+00  1.0000000000E+00 Bohr
              amu      1.51965000E+02  8.76200000E+01  6.94100000E+00
                       2.69815390E+01  1.40067400E+01  1.59994000E+01
        autoparal           1
           bandpp           6
       chkdilatmx           0
          chkprim           0
      chksymbreak           0
     densfor_pred           6
           diemac      5.00000000E+00
          dilatmx      1.15000000E+00
             ecut      1.00000000E+01 Hartree
           ecutsm      5.00000000E-01 Hartree
-          fftalg         312
           ionmov           2
           istwfk        2
              ixc     -101130
            jpawu      2.57245278E-02  0.00000000E+00  0.00000000E+00  0.00000000E+00  0.00000000E+00  0.00000000E+00 Hartree
         kptrlatt        1    0    0      0    1    0      0    0    1
          kptrlen      1.51269760E+01
            lpawu           3      -1      -1      -1      -1      -1
P           mkmem           1
            natom          54
            nband         180     180
           nbdbuf          30
            ngfft          50      54      60
          ngfftdg          72      72      90
             nkpt           1
-          npband          10
-           npfft           6
-        np_spkpt           2
           nspden           2
           nsppol           2
            nstep         300
             nsym           4
            ntime        1000
           ntypat           6
              occ      1.000000  1.000000  1.000000  1.000000  1.000000  1.000000
                       1.000000  1.000000  1.000000  1.000000  1.000000  1.000000
                       1.000000  1.000000  1.000000  1.000000  1.000000  1.000000
                       1.000000  1.000000  1.000000  1.000000  1.000000  1.000000
                       1.000000  1.000000  1.000000  1.000000  1.000000  1.000000
                       1.000000  1.000000  1.000000  1.000000  1.000000  1.000000
                       1.000000  1.000000  1.000000  1.000000  1.000000  1.000000
                       1.000000  1.000000  1.000000  1.000000  1.000000  1.000000
                       1.000000  1.000000  1.000000  1.000000  1.000000  1.000000
                       1.000000  1.000000  1.000000  1.000000  1.000000  1.000000
                       1.000000  1.000000  1.000000  1.000000  1.000000  1.000000
                       1.000000  1.000000  1.000000  1.000000  1.000000  1.000000
                       1.000000  1.000000  1.000000  1.000000  1.000000  1.000000
                       1.000000  1.000000  1.000000  1.000000  1.000000  1.000000
                       1.000000  1.000000  1.000000  1.000000  1.000000  1.000000
                       1.000000  1.000000  1.000000  1.000000  1.000000  1.000000
                       1.000000  1.000000  1.000000  1.000000  1.000000  1.000000
                       1.000000  1.000000  1.000000  1.000000  1.000000  1.000000
                       1.000000  1.000000  1.000000  1.000000  1.000000  1.000000
                       1.000000  1.000000  1.000000  1.000000  1.000000  1.000000
                       1.000000  1.000000  1.000000  1.000000  1.000000  1.000000
                       1.000000  1.000000  1.000000  1.000000  1.000000  1.000000
                       1.000000  1.000000  1.000000  1.000000  1.000000  1.000000
                       1.000000  0.000000  0.000000  0.000000  0.000000  0.000000
                       0.000000  0.000000  0.000000  0.000000  0.000000  0.000000
                       0.000000  0.000000  0.000000  0.000000  0.000000  0.000000
                       0.000000  0.000000  0.000000  0.000000  0.000000  0.000000
                       0.000000  0.000000  0.000000  0.000000  0.000000  0.000000
                       0.000000  0.000000  0.000000  0.000000  0.000000  0.000000
                       0.000000  0.000000  0.000000  0.000000  0.000000  0.000000
                       1.000000  1.000000  1.000000  1.000000  1.000000  1.000000
                       1.000000  1.000000  1.000000  1.000000  1.000000  1.000000
                       1.000000  1.000000  1.000000  1.000000  1.000000  1.000000
                       1.000000  1.000000  1.000000  1.000000  1.000000  1.000000
                       1.000000  1.000000  1.000000  1.000000  1.000000  1.000000
                       1.000000  1.000000  1.000000  1.000000  1.000000  1.000000
                       1.000000  1.000000  1.000000  1.000000  1.000000  1.000000
                       1.000000  1.000000  1.000000  1.000000  1.000000  1.000000
                       1.000000  1.000000  1.000000  1.000000  1.000000  1.000000
                       1.000000  1.000000  1.000000  1.000000  1.000000  1.000000
                       1.000000  1.000000  1.000000  1.000000  1.000000  1.000000
                       1.000000  1.000000  1.000000  1.000000  1.000000  1.000000
                       1.000000  1.000000  1.000000  1.000000  1.000000  1.000000
                       1.000000  1.000000  1.000000  1.000000  1.000000  1.000000
                       1.000000  1.000000  1.000000  1.000000  1.000000  1.000000
                       1.000000  1.000000  1.000000  1.000000  1.000000  1.000000
                       1.000000  1.000000  1.000000  1.000000  1.000000  1.000000
                       1.000000  1.000000  1.000000  1.000000  1.000000  1.000000
                       1.000000  1.000000  1.000000  1.000000  1.000000  1.000000
                       1.000000  1.000000  1.000000  1.000000  1.000000  1.000000
                       1.000000  1.000000  1.000000  1.000000  1.000000  1.000000
                       1.000000  1.000000  1.000000  1.000000  1.000000  1.000000
                       0.000000  0.000000  0.000000  0.000000  0.000000  0.000000
                       0.000000  0.000000  0.000000  0.000000  0.000000  0.000000
                       0.000000  0.000000  0.000000  0.000000  0.000000  0.000000
                       0.000000  0.000000  0.000000  0.000000  0.000000  0.000000
                       0.000000  0.000000  0.000000  0.000000  0.000000  0.000000
                       0.000000  0.000000  0.000000  0.000000  0.000000  0.000000
                       0.000000  0.000000  0.000000  0.000000  0.000000  0.000000
                       0.000000  0.000000  0.000000  0.000000  0.000000  0.000000
           occopt           2
          optcell           2
        optforces           1
        paral_kgb           1
        pawecutdg      2.00000000E+01 Hartree
         pawmixdg           1
            prtwf           0
            rprim      1.5126976002E+01  0.0000000000E+00  0.0000000000E+00
                       0.0000000000E+00  1.5126976002E+01  0.0000000000E+00
                       0.0000000000E+00  0.0000000000E+00  1.8140973330E+01
          spgroup          10
           spinat      0.0000000000E+00  0.0000000000E+00  7.0000000000E+00
                       0.0000000000E+00  0.0000000000E+00  0.0000000000E+00
                       0.0000000000E+00  0.0000000000E+00  0.0000000000E+00
                       0.0000000000E+00  0.0000000000E+00  0.0000000000E+00
                       0.0000000000E+00  0.0000000000E+00  0.0000000000E+00
                       0.0000000000E+00  0.0000000000E+00  0.0000000000E+00
                       0.0000000000E+00  0.0000000000E+00  0.0000000000E+00
                       0.0000000000E+00  0.0000000000E+00  0.0000000000E+00
                       0.0000000000E+00  0.0000000000E+00  0.0000000000E+00
                       0.0000000000E+00  0.0000000000E+00  0.0000000000E+00
                       0.0000000000E+00  0.0000000000E+00  0.0000000000E+00
                       0.0000000000E+00  0.0000000000E+00  0.0000000000E+00
                       0.0000000000E+00  0.0000000000E+00  0.0000000000E+00
                       0.0000000000E+00  0.0000000000E+00  0.0000000000E+00
                       0.0000000000E+00  0.0000000000E+00  0.0000000000E+00
                       0.0000000000E+00  0.0000000000E+00  0.0000000000E+00
                       0.0000000000E+00  0.0000000000E+00  0.0000000000E+00
                       0.0000000000E+00  0.0000000000E+00  0.0000000000E+00
                       0.0000000000E+00  0.0000000000E+00  0.0000000000E+00
                       0.0000000000E+00  0.0000000000E+00  0.0000000000E+00
                       0.0000000000E+00  0.0000000000E+00  0.0000000000E+00
                       0.0000000000E+00  0.0000000000E+00  0.0000000000E+00
                       0.0000000000E+00  0.0000000000E+00  0.0000000000E+00
                       0.0000000000E+00  0.0000000000E+00  0.0000000000E+00
                       0.0000000000E+00  0.0000000000E+00  0.0000000000E+00
                       0.0000000000E+00  0.0000000000E+00  0.0000000000E+00
                       0.0000000000E+00  0.0000000000E+00  0.0000000000E+00
                       0.0000000000E+00  0.0000000000E+00  0.0000000000E+00
                       0.0000000000E+00  0.0000000000E+00  0.0000000000E+00
                       0.0000000000E+00  0.0000000000E+00  0.0000000000E+00
                       0.0000000000E+00  0.0000000000E+00  0.0000000000E+00
                       0.0000000000E+00  0.0000000000E+00  0.0000000000E+00
                       0.0000000000E+00  0.0000000000E+00  0.0000000000E+00
                       0.0000000000E+00  0.0000000000E+00  0.0000000000E+00
                       0.0000000000E+00  0.0000000000E+00  0.0000000000E+00
                       0.0000000000E+00  0.0000000000E+00  0.0000000000E+00
                       0.0000000000E+00  0.0000000000E+00  0.0000000000E+00
                       0.0000000000E+00  0.0000000000E+00  0.0000000000E+00
                       0.0000000000E+00  0.0000000000E+00  0.0000000000E+00
                       0.0000000000E+00  0.0000000000E+00  0.0000000000E+00
                       0.0000000000E+00  0.0000000000E+00  0.0000000000E+00
                       0.0000000000E+00  0.0000000000E+00  0.0000000000E+00
                       0.0000000000E+00  0.0000000000E+00  0.0000000000E+00
                       0.0000000000E+00  0.0000000000E+00  0.0000000000E+00
                       0.0000000000E+00  0.0000000000E+00  0.0000000000E+00
                       0.0000000000E+00  0.0000000000E+00  0.0000000000E+00
                       0.0000000000E+00  0.0000000000E+00  0.0000000000E+00
                       0.0000000000E+00  0.0000000000E+00  0.0000000000E+00
                       0.0000000000E+00  0.0000000000E+00  0.0000000000E+00
                       0.0000000000E+00  0.0000000000E+00  0.0000000000E+00
                       0.0000000000E+00  0.0000000000E+00  0.0000000000E+00
                       0.0000000000E+00  0.0000000000E+00  0.0000000000E+00
                       0.0000000000E+00  0.0000000000E+00  0.0000000000E+00
                       0.0000000000E+00  0.0000000000E+00  0.0000000000E+00
           symrel      1  0  0   0  1  0   0  0  1      -1  0  0   0 -1  0   0  0 -1
                      -1  0  0   0 -1  0   0  0  1       1  0  0   0  1  0   0  0 -1
            tnons      0.0000000  0.0000000  0.0000000    -0.0000000  0.0000000  0.3333333
                      -0.0000000  0.0000000  0.0000000     0.0000000  0.0000000  0.3333333
           toldff      1.00000000E-04
           tolmxf      1.00000000E-03
            typat      1  2  2  2  2  2  3  3  3  3  3  3  3  3  3  3  3  3  4  4
                       4  4  4  4  4  4  4  4  4  4  5  5  5  5  5  5  5  5  5  5
                       5  5  6  6  6  6  6  6  6  6  6  6  6  6
            upawu      2.57245278E-01  0.00000000E+00  0.00000000E+00  0.00000000E+00  0.00000000E+00  0.00000000E+00 Hartree
          usepawu           1
           useylm           1
         wfoptalg         114
           xangst      4.0024254675E+00  0.0000000000E+00  1.5999649383E+00
                       4.0024254675E+00  0.0000000000E+00  4.7998948145E+00
                       4.0024254675E+00  0.0000000000E+00  7.9998246902E+00
                      -4.4435849084E-16  4.0024254675E+00  4.7998952112E-10
                      -4.4435849084E-16  4.0024254675E+00  3.1999298762E+00
                      -4.4435849084E-16  4.0024254675E+00  6.3998597523E+00
                       1.0101490297E+00  6.5876004020E+00  1.5999649383E+00
                       1.0101490297E+00  6.5876004020E+00  4.7998948145E+00
                       1.0101490297E+00  6.5876004020E+00  7.9998246902E+00
                       6.9947019053E+00  1.4172505330E+00  1.5999649383E+00
                       6.9947019053E+00  1.4172505330E+00  4.7998948145E+00
                       6.9947019053E+00  1.4172505330E+00  7.9998246902E+00
                       1.4172505330E+00  1.0101490297E+00  4.7998952112E-10
                       1.4172505330E+00  1.0101490297E+00  3.1999298762E+00
                       1.4172505330E+00  1.0101490297E+00  6.3998597523E+00
                       6.5876004020E+00  6.9947019053E+00  4.7998952112E-10
                       6.5876004020E+00  6.9947019053E+00  3.1999298762E+00
                       6.5876004020E+00  6.9947019053E+00  6.3998597523E+00
                       2.8273408069E+00  5.4776019036E+00  4.7998952112E-10
                       2.8273408069E+00  5.4776019036E+00  3.1999298762E+00
                       2.8273408069E+00  5.4776019036E+00  6.3998597523E+00
                       5.1775101281E+00  2.5272490314E+00  4.7998952112E-10
                       5.1775101281E+00  2.5272490314E+00  3.1999298762E+00
                       5.1775101281E+00  2.5272490314E+00  6.3998597523E+00
                       2.5272490314E+00  2.8273408069E+00  1.5999649383E+00
                       2.5272490314E+00  2.8273408069E+00  4.7998948145E+00
                       2.5272490314E+00  2.8273408069E+00  7.9998246902E+00
                       5.4776019036E+00  5.1775101281E+00  1.5999649383E+00
                       5.4776019036E+00  5.1775101281E+00  4.7998948145E+00
                       5.4776019036E+00  5.1775101281E+00  7.9998246902E+00
                       4.6790691932E+00  5.8356693722E+00  4.7998952112E-10
                       4.6790691932E+00  5.8356693722E+00  3.1999298762E+00
                       4.6790691932E+00  5.8356693722E+00  6.3998597523E+00
                       3.3257817418E+00  2.1691815628E+00  4.7998952112E-10
                       3.3257817418E+00  2.1691815628E+00  3.1999298762E+00
                       3.3257817418E+00  2.1691815628E+00  6.3998597523E+00
                       2.1691815628E+00  4.6790691932E+00  1.5999649383E+00
                       2.1691815628E+00  4.6790691932E+00  4.7998948145E+00
                       2.1691815628E+00  4.6790691932E+00  7.9998246902E+00
                       5.8356693722E+00  3.3257817418E+00  1.5999649383E+00
                       5.8356693722E+00  3.3257817418E+00  4.7998948145E+00
                       5.8356693722E+00  3.3257817418E+00  7.9998246902E+00
                       2.0496947938E+00  7.1461588881E+00  4.7998952112E-10
                       2.0496947938E+00  7.1461588881E+00  3.1999298762E+00
                       2.0496947938E+00  7.1461588881E+00  6.3998597523E+00
                       5.9551561411E+00  8.5869204688E-01  4.7998952112E-10
                       5.9551561411E+00  8.5869204688E-01  3.1999298762E+00
                       5.9551561411E+00  8.5869204688E-01  6.3998597523E+00
                       8.5869204688E-01  2.0496947938E+00  1.5999649383E+00
                       8.5869204688E-01  2.0496947938E+00  4.7998948145E+00
                       8.5869204688E-01  2.0496947938E+00  7.9998246902E+00
                       7.1461588881E+00  5.9551561411E+00  1.5999649383E+00
                       7.1461588881E+00  5.9551561411E+00  4.7998948145E+00
                       7.1461588881E+00  5.9551561411E+00  7.9998246902E+00
            xcart      7.5634880008E+00  0.0000000000E+00  3.0234955557E+00
                       7.5634880008E+00  0.0000000000E+00  9.0704866661E+00
                       7.5634880008E+00  0.0000000000E+00  1.5117477776E+01
                      -8.3971585250E-16  7.5634880008E+00  9.0704874156E-10
                      -8.3971585250E-16  7.5634880008E+00  6.0469911104E+00
                      -8.3971585250E-16  7.5634880008E+00  1.2093982221E+01
                       1.9089050196E+00  1.2448760633E+01  3.0234955557E+00
                       1.9089050196E+00  1.2448760633E+01  9.0704866661E+00
                       1.9089050196E+00  1.2448760633E+01  1.5117477776E+01
                       1.3218070982E+01  2.6782153690E+00  3.0234955557E+00
                       1.3218070982E+01  2.6782153690E+00  9.0704866661E+00
                       1.3218070982E+01  2.6782153690E+00  1.5117477776E+01
                       2.6782153690E+00  1.9089050196E+00  9.0704874156E-10
                       2.6782153690E+00  1.9089050196E+00  6.0469911104E+00
                       2.6782153690E+00  1.9089050196E+00  1.2093982221E+01
                       1.2448760633E+01  1.3218070982E+01  9.0704874156E-10
                       1.2448760633E+01  1.3218070982E+01  6.0469911104E+00
                       1.2448760633E+01  1.3218070982E+01  1.2093982221E+01
                       5.3428998093E+00  1.0351167463E+01  9.0704874156E-10
                       5.3428998093E+00  1.0351167463E+01  6.0469911104E+00
                       5.3428998093E+00  1.0351167463E+01  1.2093982221E+01
                       9.7840761924E+00  4.7758085390E+00  9.0704874156E-10
                       9.7840761924E+00  4.7758085390E+00  6.0469911104E+00
                       9.7840761924E+00  4.7758085390E+00  1.2093982221E+01
                       4.7758085390E+00  5.3428998093E+00  3.0234955557E+00
                       4.7758085390E+00  5.3428998093E+00  9.0704866661E+00
                       4.7758085390E+00  5.3428998093E+00  1.5117477776E+01
                       1.0351167463E+01  9.7840761924E+00  3.0234955557E+00
                       1.0351167463E+01  9.7840761924E+00  9.0704866661E+00
                       1.0351167463E+01  9.7840761924E+00  1.5117477776E+01
                       8.8421593320E+00  1.1027816916E+01  9.0704874156E-10
                       8.8421593320E+00  1.1027816916E+01  6.0469911104E+00
                       8.8421593320E+00  1.1027816916E+01  1.2093982221E+01
                       6.2848166697E+00  4.0991590861E+00  9.0704874156E-10
                       6.2848166697E+00  4.0991590861E+00  6.0469911104E+00
                       6.2848166697E+00  4.0991590861E+00  1.2093982221E+01
                       4.0991590861E+00  8.8421593320E+00  3.0234955557E+00
                       4.0991590861E+00  8.8421593320E+00  9.0704866661E+00
                       4.0991590861E+00  8.8421593320E+00  1.5117477776E+01
                       1.1027816916E+01  6.2848166697E+00  3.0234955557E+00
                       1.1027816916E+01  6.2848166697E+00  9.0704866661E+00
                       1.1027816916E+01  6.2848166697E+00  1.5117477776E+01
                       3.8733618164E+00  1.3504283201E+01  9.0704874156E-10
                       3.8733618164E+00  1.3504283201E+01  6.0469911104E+00
                       3.8733618164E+00  1.3504283201E+01  1.2093982221E+01
                       1.1253614185E+01  1.6226928011E+00  9.0704874156E-10
                       1.1253614185E+01  1.6226928011E+00  6.0469911104E+00
                       1.1253614185E+01  1.6226928011E+00  1.2093982221E+01
                       1.6226928011E+00  3.8733618164E+00  3.0234955557E+00
                       1.6226928011E+00  3.8733618164E+00  9.0704866661E+00
                       1.6226928011E+00  3.8733618164E+00  1.5117477776E+01
                       1.3504283201E+01  1.1253614185E+01  3.0234955557E+00
                       1.3504283201E+01  1.1253614185E+01  9.0704866661E+00
                       1.3504283201E+01  1.1253614185E+01  1.5117477776E+01
             xred      5.0000000000E-01  0.0000000000E+00  1.6666666670E-01
                       5.0000000000E-01  0.0000000000E+00  5.0000000005E-01
                       5.0000000000E-01  0.0000000000E+00  8.3333333335E-01
                      -5.5511151231E-17  5.0000000000E-01  5.0000004137E-11
                      -5.5511151231E-17  5.0000000000E-01  3.3333333335E-01
                      -5.5511151231E-17  5.0000000000E-01  6.6666666670E-01
                       1.2619211000E-01  8.2295104000E-01  1.6666666670E-01
                       1.2619211000E-01  8.2295104000E-01  5.0000000005E-01
                       1.2619211000E-01  8.2295104000E-01  8.3333333335E-01
                       8.7380789000E-01  1.7704896000E-01  1.6666666670E-01
                       8.7380789000E-01  1.7704896000E-01  5.0000000005E-01
                       8.7380789000E-01  1.7704896000E-01  8.3333333335E-01
                       1.7704896000E-01  1.2619211000E-01  5.0000004137E-11
                       1.7704896000E-01  1.2619211000E-01  3.3333333335E-01
                       1.7704896000E-01  1.2619211000E-01  6.6666666670E-01
                       8.2295104000E-01  8.7380789000E-01  5.0000004137E-11
                       8.2295104000E-01  8.7380789000E-01  3.3333333335E-01
                       8.2295104000E-01  8.7380789000E-01  6.6666666670E-01
                       3.5320343000E-01  6.8428531000E-01  5.0000004137E-11
                       3.5320343000E-01  6.8428531000E-01  3.3333333335E-01
                       3.5320343000E-01  6.8428531000E-01  6.6666666670E-01
                       6.4679657000E-01  3.1571469000E-01  5.0000004137E-11
                       6.4679657000E-01  3.1571469000E-01  3.3333333335E-01
                       6.4679657000E-01  3.1571469000E-01  6.6666666670E-01
                       3.1571469000E-01  3.5320343000E-01  1.6666666670E-01
                       3.1571469000E-01  3.5320343000E-01  5.0000000005E-01
                       3.1571469000E-01  3.5320343000E-01  8.3333333335E-01
                       6.8428531000E-01  6.4679657000E-01  1.6666666670E-01
                       6.8428531000E-01  6.4679657000E-01  5.0000000005E-01
                       6.8428531000E-01  6.4679657000E-01  8.3333333335E-01
                       5.8452921000E-01  7.2901662000E-01  5.0000004137E-11
                       5.8452921000E-01  7.2901662000E-01  3.3333333335E-01
                       5.8452921000E-01  7.2901662000E-01  6.6666666670E-01
                       4.1547079000E-01  2.7098338000E-01  5.0000004137E-11
                       4.1547079000E-01  2.7098338000E-01  3.3333333335E-01
                       4.1547079000E-01  2.7098338000E-01  6.6666666670E-01
                       2.7098338000E-01  5.8452921000E-01  1.6666666670E-01
                       2.7098338000E-01  5.8452921000E-01  5.0000000005E-01
                       2.7098338000E-01  5.8452921000E-01  8.3333333335E-01
                       7.2901662000E-01  4.1547079000E-01  1.6666666670E-01
                       7.2901662000E-01  4.1547079000E-01  5.0000000005E-01
                       7.2901662000E-01  4.1547079000E-01  8.3333333335E-01
                       2.5605658500E-01  8.9272854000E-01  5.0000004137E-11
                       2.5605658500E-01  8.9272854000E-01  3.3333333335E-01
                       2.5605658500E-01  8.9272854000E-01  6.6666666670E-01
                       7.4394341500E-01  1.0727146000E-01  5.0000004137E-11
                       7.4394341500E-01  1.0727146000E-01  3.3333333335E-01
                       7.4394341500E-01  1.0727146000E-01  6.6666666670E-01
                       1.0727146000E-01  2.5605658500E-01  1.6666666670E-01
                       1.0727146000E-01  2.5605658500E-01  5.0000000005E-01
                       1.0727146000E-01  2.5605658500E-01  8.3333333335E-01
                       8.9272854000E-01  7.4394341500E-01  1.6666666670E-01
                       8.9272854000E-01  7.4394341500E-01  5.0000000005E-01
                       8.9272854000E-01  7.4394341500E-01  8.3333333335E-01
            znucl       63.00000   38.00000    3.00000   13.00000    7.00000    8.00000

================================================================================

 chkinp: Checking input parameters for consistency.
 Perdew, Burke & Ernzerhof
 J. P. Perdew, K. Burke, and M. Ernzerhof.,  Phys. Rev. Lett. 77, 3865 (1996)
 J. P. Perdew, K. Burke, and M. Ernzerhof.,  Phys. Rev. Lett. 78, 1396 (1997)
 Perdew, Burke & Ernzerhof
 J. P. Perdew, K. Burke, and M. Ernzerhof.,  Phys. Rev. Lett. 77, 3865 (1996)
 J. P. Perdew, K. Burke, and M. Ernzerhof.,  Phys. Rev. Lett. 78, 1396 (1997)

 DATA TYPE INFORMATION: 
 REAL:      Data type name: REAL(DP) 
            Kind value:      8
            Precision:      15
            Smallest nonnegligible quantity relative to 1: 0.22204460E-015
            Smallest positive number:                      0.22250739E-307
            Largest representable number:                  0.17976931E+309
 INTEGER:   Data type name: INTEGER(default) 
            Kind value: 4
            Bit size:   32
            Largest representable number: 2147483647
 LOGICAL:   Data type name: LOGICAL 
            Kind value: 4
 CHARACTER: Data type name: CHARACTER             Kind value: 1

  ==== OpenMP parallelism is OFF ====
 
  ==== Using MPI-2 specifications ==== 
  MPI-IO support is ON
  xmpi_tag_ub ................      8388607
  xmpi_bsize_ch ..............            1
  xmpi_bsize_int .............            4
  xmpi_bsize_sp ..............            4
  xmpi_bsize_dp ..............            8
  xmpi_bsize_spc .............            8
  xmpi_bsize_dpc .............           16
  xmpio_bsize_frm ............            4
  xmpi_address_kind ..........            8
  xmpi_offset_kind ...........            8
  MPI_WTICK ..................    1.0000000000000001E-009

================================================================================
== DATASET  1 ==================================================================
-   mpi_nproc: 120, omp_nthreads: -1 (-1 if OMP is not activated)


--- !COMMENT
src_file: m_xgScalapack.F90
src_line: 235
message: |
    xgScalapack in auto mode
...


 getdim_nloc: deduce lmnmax  =  32, lnmax  =   8,
                      lmnmaxso=  32, lnmaxso=   8.
 Perdew, Burke & Ernzerhof
 J. P. Perdew, K. Burke, and M. Ernzerhof.,  Phys. Rev. Lett. 77, 3865 (1996)
 J. P. Perdew, K. Burke, and M. Ernzerhof.,  Phys. Rev. Lett. 78, 1396 (1997)
 Perdew, Burke & Ernzerhof
 J. P. Perdew, K. Burke, and M. Ernzerhof.,  Phys. Rev. Lett. 77, 3865 (1996)
 J. P. Perdew, K. Burke, and M. Ernzerhof.,  Phys. Rev. Lett. 78, 1396 (1997)

 Unit cell volume ucvol=  4.1511155E+03 bohr^3
 Angles (23,13,12)=  9.00000000E+01  9.00000000E+01  9.00000000E+01 degrees

 Coarse grid specifications (used for wave-functions):

 getcut: wavevector=  0.0000  0.0000  0.0000  ngfft=  50  54  60
         ecut(hartree)=     13.225   => boxcut(ratio)=   2.01909

 Fine grid specifications (used for densities):

 getcut: wavevector=  0.0000  0.0000  0.0000  ngfft=  72  72  90
         ecut(hartree)=     26.450   => boxcut(ratio)=   2.05590
- pspini: atom type   1  psp file is /gpfs/home/acad/ucl-modl/jbouq/paw-sr-11_pbe_standard_xml/Eu.xml
- pspatm: opening atomic psp file    /gpfs/home/acad/ucl-modl/jbouq/paw-sr-11_pbe_standard_xml/Eu.xml
- pspatm : Reading pseudopotential header in XML form from /gpfs/home/acad/ucl-modl/jbouq/paw-sr-11_pbe_standard_xml/Eu.xml
 Pseudopotential format is: paw10
 basis_size (lnmax)=  8 (lmn_size= 32), orbitals=   0   0   1   1   2   2   3   3
 Spheres core radius: rc_sph= 2.52170005
 1 radial meshes are used:
  - mesh 1: r(i)=AA*[exp(BB*(i-1))-1], size=1500 , AA= 0.14034E-03 BB= 0.88415E-02
 Shapefunction is SIN type: shapef(r)=[sin(pi*r/rshp)/(pi*r/rshp)]**2
 Radius for shape functions =  2.30830346
 mmax= 1500
 Radial grid used for partial waves is grid 1
 Radial grid used for projectors is grid 1
 Radial grid used for (t)core density is grid 1
 Radial grid used for Vloc is grid 1
 Radial grid used for pseudo valence density is grid 1
 Mesh size for Vloc has been set to 1343 to avoid numerical noise.
 Compensation charge density is not taken into account in XC energy/potential
 beta integral value:      -0.100338E+03
 pspatm: atomic psp has been read  and splines computed

- pspini: atom type   2  psp file is /gpfs/home/acad/ucl-modl/jbouq/paw-sr-11_pbe_standard_xml/Sr.xml
- pspatm: opening atomic psp file    /gpfs/home/acad/ucl-modl/jbouq/paw-sr-11_pbe_standard_xml/Sr.xml
- pspatm : Reading pseudopotential header in XML form from /gpfs/home/acad/ucl-modl/jbouq/paw-sr-11_pbe_standard_xml/Sr.xml
 Pseudopotential format is: paw10
 basis_size (lnmax)=  6 (lmn_size= 18), orbitals=   0   0   1   1   2   2
 Spheres core radius: rc_sph= 2.20669967
 1 radial meshes are used:
  - mesh 1: r(i)=AA*[exp(BB*(i-1))-1], size=1500 , AA= 0.22443E-03 BB= 0.85283E-02
 Shapefunction is SIN type: shapef(r)=[sin(pi*r/rshp)/(pi*r/rshp)]**2
 Radius for shape functions =  1.81361893
 mmax= 1500
 Radial grid used for partial waves is grid 1
 Radial grid used for projectors is grid 1
 Radial grid used for (t)core density is grid 1
 Radial grid used for Vloc is grid 1
 Radial grid used for pseudo valence density is grid 1
 Mesh size for Vloc has been set to 1337 to avoid numerical noise.
 Compensation charge density is not taken into account in XC energy/potential
 beta integral value:      -0.348164E+02
 pspatm: atomic psp has been read  and splines computed

- pspini: atom type   3  psp file is /gpfs/home/acad/ucl-modl/jbouq/paw-sr-11_pbe_standard_xml/Li.xml
- pspatm: opening atomic psp file    /gpfs/home/acad/ucl-modl/jbouq/paw-sr-11_pbe_standard_xml/Li.xml
- pspatm : Reading pseudopotential header in XML form from /gpfs/home/acad/ucl-modl/jbouq/paw-sr-11_pbe_standard_xml/Li.xml
 Pseudopotential format is: paw10
 basis_size (lnmax)=  5 (lmn_size=  9), orbitals=   0   0   0   1   1
 Spheres core radius: rc_sph= 1.60264751
 1 radial meshes are used:
  - mesh 1: r(i)=AA*[exp(BB*(i-1))-1], size=2001 , AA= 0.17851E-02 BB= 0.53552E-02
 Shapefunction is BESSEL type: shapef(r,l)=aa(1,l)*jl(q(1,l)*r)+aa(2,l)*jl(q(2,l)*r)
 Radius for shape functions =  1.30023672
 mmax= 2001
 Radial grid used for partial waves is grid 1
 Radial grid used for projectors is grid 1
 Radial grid used for (t)core density is grid 1
 Radial grid used for Vloc is grid 1
 Radial grid used for pseudo valence density is grid 1
 Mesh size for Vloc has been set to 1742 to avoid numerical noise.
 Compensation charge density is not taken into account in XC energy/potential
 beta integral value:      -0.572314E+01
 pspatm: atomic psp has been read  and splines computed

- pspini: atom type   4  psp file is /gpfs/home/acad/ucl-modl/jbouq/paw-sr-11_pbe_standard_xml/Al.xml
- pspatm: opening atomic psp file    /gpfs/home/acad/ucl-modl/jbouq/paw-sr-11_pbe_standard_xml/Al.xml
- pspatm : Reading pseudopotential header in XML form from /gpfs/home/acad/ucl-modl/jbouq/paw-sr-11_pbe_standard_xml/Al.xml
 Pseudopotential format is: paw10
 basis_size (lnmax)=  4 (lmn_size=  8), orbitals=   0   0   1   1
 Spheres core radius: rc_sph= 1.90363307
 1 radial meshes are used:
  - mesh 1: r(i)=AA*[exp(BB*(i-1))-1], size=2001 , AA= 0.46377E-03 BB= 0.60291E-02
 Shapefunction is SIN type: shapef(r)=[sin(pi*r/rshp)/(pi*r/rshp)]**2
 Radius for shape functions =  1.60786206
 mmax= 2001
 Radial grid used for partial waves is grid 1
 Radial grid used for projectors is grid 1
 Radial grid used for (t)core density is grid 1
 Radial grid used for Vloc is grid 1
 Radial grid used for pseudo valence density is grid 1
 Mesh size for Vloc has been set to 1771 to avoid numerical noise.
 Compensation charge density is not taken into account in XC energy/potential
 beta integral value:      -0.421879E+01
 pspatm: atomic psp has been read  and splines computed

- pspini: atom type   5  psp file is /gpfs/home/acad/ucl-modl/jbouq/paw-sr-11_pbe_standard_xml/N.xml
- pspatm: opening atomic psp file    /gpfs/home/acad/ucl-modl/jbouq/paw-sr-11_pbe_standard_xml/N.xml
- pspatm : Reading pseudopotential header in XML form from /gpfs/home/acad/ucl-modl/jbouq/paw-sr-11_pbe_standard_xml/N.xml
 Pseudopotential format is: paw10
 basis_size (lnmax)=  4 (lmn_size=  8), orbitals=   0   0   1   1
 Spheres core radius: rc_sph= 1.20000000
 1 radial meshes are used:
  - mesh 1: r(i)=AA*[exp(BB*(i-1))-1], size= 787 , AA= 0.19344E-02 BB= 0.13541E-01
 Shapefunction is SIN type: shapef(r)=[sin(pi*r/rshp)/(pi*r/rshp)]**2
 Radius for shape functions =  1.00599851
 mmax=  787
 Radial grid used for partial waves is grid 1
 Radial grid used for projectors is grid 1
 Radial grid used for (t)core density is grid 1
 Radial grid used for Vloc is grid 1
 Radial grid used for pseudo valence density is grid 1
 Mesh size for Vloc has been set to  683 to avoid numerical noise.
 Compensation charge density is not taken into account in XC energy/potential
 beta integral value:      -0.338496E+01
 pspatm: atomic psp has been read  and splines computed

- pspini: atom type   6  psp file is /gpfs/home/acad/ucl-modl/jbouq/paw-sr-11_pbe_standard_xml/O.xml
- pspatm: opening atomic psp file    /gpfs/home/acad/ucl-modl/jbouq/paw-sr-11_pbe_standard_xml/O.xml
- pspatm : Reading pseudopotential header in XML form from /gpfs/home/acad/ucl-modl/jbouq/paw-sr-11_pbe_standard_xml/O.xml
 Pseudopotential format is: paw10
 basis_size (lnmax)=  4 (lmn_size=  8), orbitals=   0   0   1   1
 Spheres core radius: rc_sph= 1.41465230
 1 radial meshes are used:
  - mesh 1: r(i)=AA*[exp(BB*(i-1))-1], size=2001 , AA= 0.72565E-03 BB= 0.58052E-02
 Shapefunction is SIN type: shapef(r)=[sin(pi*r/rshp)/(pi*r/rshp)]**2
 Radius for shape functions =  1.20231231
 mmax= 2001
 Radial grid used for partial waves is grid 1
 Radial grid used for projectors is grid 1
 Radial grid used for (t)core density is grid 1
 Radial grid used for Vloc is grid 1
 Radial grid used for pseudo valence density is grid 1
 Mesh size for Vloc has been set to 1762 to avoid numerical noise.
 Compensation charge density is not taken into account in XC energy/potential
 beta integral value:      -0.481698E+01
 pspatm: atomic psp has been read  and splines computed

   8.49875662E+04                                ecore*ucvol(ha*bohr**3)
 ==== Info on pseudopotentials ====
  PAW calculation
  Number of pseudopotentials ..    6
  Number of types of atoms   ..    6
  Scalar calculation (no spin-orbit term)
  Nonlocal part applied using real spherical harmonics
  Max number of non-local projectors over l and type   3
  Highest angular momentum +1 .......   4
  Max number of (l,n)   components ..   8
  Max number of (l,m,n) components ..  32

 Pseudo-Core Charge Info: 
   Number of radial points for pseudo-core charge ..    1
   XC core-correction treatment (optnlxccc) ........    1
   Radius for pseudo-core charge for each type ..... 

  - Atom type    1 has pseudo-core radius .. 80.0000
  - Atom type    2 has pseudo-core radius .. 80.0000
  - Atom type    3 has pseudo-core radius .. 80.0000
  - Atom type    4 has pseudo-core radius .. 80.0000
  - Atom type    5 has pseudo-core radius .. 81.0530
  - Atom type    6 has pseudo-core radius .. 80.0000

 Info on the Q-grid used for form factors in spline form: 
   Number of q-points for radial functions ffspl ..   3001
   Number of q-points for vlspl ...................   4200
   vloc is computed in Reciprocal Space

  XC functional for type 1 is -101130
  XC functional for type 2 is -101130
  XC functional for type 3 is -101130
  XC functional for type 4 is -101130
  XC functional for type 5 is -101130
  XC functional for type 6 is -101130

 newkpt: spin channel isppol2 =     1
 wfconv:   180 bands initialized randomly with npw=    76, for ikpt=     1
 newkpt: spin channel isppol2 =     2
_setup2: Arith. and geom. avg. npw (full set) are     151.000     151.000


 ******************************************
 DFT+U Method used: FLL
 ******************************************

 pawpuxinit : for species    1
   number of projectors is   2

 pawpuxinit : dmatpuopt=2 
   PAW+U: dens. mat. constructed by selecting contribution
          for each angular momentum to the density (inside PAW augm. region(s))

   Slater parameters F^0, F^2, F^4, F^6 are   0.2572   0.3066   0.2049   0.1516


 Matrix of interaction vee(m1,m2,m1,m2)
      8.23257063689402      6.88913988265952      6.46749977640634      6.33925521773747      6.46749977640634      6.88913988265952      7.71489482723676
      6.88913988265952      7.59134784354968      6.91374416949058      6.85223345241294      6.91374416949058      6.95065059973716      6.88913988265952
      6.46749977640634      6.91374416949058      8.12997498995893      7.30764611420455      6.79989100404267      6.91374416949058      6.46749977640634
      6.33925521773747      6.85223345241294      7.30764611420455      8.00173043129006      7.30764611420455      6.85223345241294      6.33925521773747
      6.46749977640634      6.91374416949058      6.79989100404267      7.30764611420455      8.12997498995893      6.91374416949058      6.46749977640634
      6.88913988265952      6.95065059973716      6.91374416949058      6.85223345241294      6.91374416949058      7.59134784354968      6.88913988265952
      7.71489482723676      6.88913988265952      6.46749977640634      6.33925521773747      6.46749977640634      6.88913988265952      8.23257063689402


 initro: for itypat=  1, take pseudo charge density from pp file
 initro: for itypat=  2, take pseudo charge density from pp file
 initro: for itypat=  3, take pseudo charge density from pp file
 initro: for itypat=  4, take pseudo charge density from pp file
 initro: for itypat=  5, take pseudo charge density from pp file
 initro: for itypat=  6, take pseudo charge density from pp file

================================================================================
 Enabling timelimit check in function: mover with timelimit: 01:00:00 [hours]

=== [ionmov= 2] Broyden-Fletcher-Goldfard-Shanno method (forces)            
================================================================================

--- Iteration: (   1/1000) Internal Cycle: (1/1)
--------------------------------------------------------------------------------

 Cartesian coordinates (xcart) [bohr]
  7.56348800085000E+00  0.00000000000000E+00  3.02349555565470E+00
  7.56348800085000E+00  0.00000000000000E+00  9.07048666605705E+00
  7.56348800085000E+00  0.00000000000000E+00  1.51174777755523E+01
 -8.39715852501977E-16  7.56348800085000E+00  9.07048741564543E-10
 -8.39715852501977E-16  7.56348800085000E+00  6.04699111040235E+00
 -8.39715852501977E-16  7.56348800085000E+00  1.20939822208047E+01
  1.90890501957389E+00  1.24487606326541E+01  3.02349555565470E+00
  1.90890501957389E+00  1.24487606326541E+01  9.07048666605705E+00
  1.90890501957389E+00  1.24487606326541E+01  1.51174777755523E+01
  1.32180709821261E+01  2.67821536904594E+00  3.02349555565470E+00
  1.32180709821261E+01  2.67821536904594E+00  9.07048666605705E+00
  1.32180709821261E+01  2.67821536904594E+00  1.51174777755523E+01
  2.67821536904594E+00  1.90890501957389E+00  9.07048741564543E-10
  2.67821536904594E+00  1.90890501957389E+00  6.04699111040235E+00
  2.67821536904594E+00  1.90890501957389E+00  1.20939822208047E+01
  1.24487606326541E+01  1.32180709821261E+01  9.07048741564543E-10
  1.24487606326541E+01  1.32180709821261E+01  6.04699111040235E+00
  1.24487606326541E+01  1.32180709821261E+01  1.20939822208047E+01
  5.34289980932813E+00  1.03511674626858E+01  9.07048741564543E-10
  5.34289980932813E+00  1.03511674626858E+01  6.04699111040235E+00
  5.34289980932813E+00  1.03511674626858E+01  1.20939822208047E+01
  9.78407619237187E+00  4.77580853901415E+00  9.07048741564543E-10
  9.78407619237187E+00  4.77580853901415E+00  6.04699111040235E+00
  9.78407619237187E+00  4.77580853901415E+00  1.20939822208047E+01
  4.77580853901415E+00  5.34289980932813E+00  3.02349555565470E+00
  4.77580853901415E+00  5.34289980932813E+00  9.07048666605705E+00
  4.77580853901415E+00  5.34289980932813E+00  1.51174777755523E+01
  1.03511674626858E+01  9.78407619237187E+00  3.02349555565470E+00
  1.03511674626858E+01  9.78407619237187E+00  9.07048666605705E+00
  1.03511674626858E+01  9.78407619237187E+00  1.51174777755523E+01
  8.84215933196266E+00  1.10278169155804E+01  9.07048741564543E-10
  8.84215933196266E+00  1.10278169155804E+01  6.04699111040235E+00
  8.84215933196266E+00  1.10278169155804E+01  1.20939822208047E+01
  6.28481666973734E+00  4.09915908611955E+00  9.07048741564543E-10
  6.28481666973734E+00  4.09915908611955E+00  6.04699111040235E+00
  6.28481666973734E+00  4.09915908611955E+00  1.20939822208047E+01
  4.09915908611955E+00  8.84215933196266E+00  3.02349555565470E+00
  4.09915908611955E+00  8.84215933196266E+00  9.07048666605705E+00
  4.09915908611955E+00  8.84215933196266E+00  1.51174777755523E+01
  1.10278169155804E+01  6.28481666973734E+00  3.02349555565470E+00
  1.10278169155804E+01  6.28481666973734E+00  9.07048666605705E+00
  1.10278169155804E+01  6.28481666973734E+00  1.51174777755523E+01
  3.87336181637226E+00  1.35042832006127E+01  9.07048741564543E-10
  3.87336181637226E+00  1.35042832006127E+01  6.04699111040235E+00
  3.87336181637226E+00  1.35042832006127E+01  1.20939822208047E+01
  1.12536141853277E+01  1.62269280108732E+00  9.07048741564543E-10
  1.12536141853277E+01  1.62269280108732E+00  6.04699111040235E+00
  1.12536141853277E+01  1.62269280108732E+00  1.20939822208047E+01
  1.62269280108732E+00  3.87336181637226E+00  3.02349555565470E+00
  1.62269280108732E+00  3.87336181637226E+00  9.07048666605705E+00
  1.62269280108732E+00  3.87336181637226E+00  1.51174777755523E+01
  1.35042832006127E+01  1.12536141853277E+01  3.02349555565470E+00
  1.35042832006127E+01  1.12536141853277E+01  9.07048666605705E+00
  1.35042832006127E+01  1.12536141853277E+01  1.51174777755523E+01
 Reduced coordinates (xred)
  5.00000000000000E-01  0.00000000000000E+00  1.66666666700000E-01
  5.00000000000000E-01  0.00000000000000E+00  5.00000000050000E-01
  5.00000000000000E-01  0.00000000000000E+00  8.33333333350000E-01
 -5.55111512312578E-17  5.00000000000000E-01  5.00000041370185E-11
 -5.55111512312578E-17  5.00000000000000E-01  3.33333333350000E-01
 -5.55111512312578E-17  5.00000000000000E-01  6.66666666700000E-01
  1.26192110000000E-01  8.22951040000000E-01  1.66666666700000E-01
  1.26192110000000E-01  8.22951040000000E-01  5.00000000050000E-01
  1.26192110000000E-01  8.22951040000000E-01  8.33333333350000E-01
  8.73807890000000E-01  1.77048960000000E-01  1.66666666700000E-01
  8.73807890000000E-01  1.77048960000000E-01  5.00000000050000E-01
  8.73807890000000E-01  1.77048960000000E-01  8.33333333350000E-01
  1.77048960000000E-01  1.26192110000000E-01  5.00000041370185E-11
  1.77048960000000E-01  1.26192110000000E-01  3.33333333350000E-01
  1.77048960000000E-01  1.26192110000000E-01  6.66666666700000E-01
  8.22951040000000E-01  8.73807890000000E-01  5.00000041370185E-11
  8.22951040000000E-01  8.73807890000000E-01  3.33333333350000E-01
  8.22951040000000E-01  8.73807890000000E-01  6.66666666700000E-01
  3.53203430000000E-01  6.84285310000000E-01  5.00000041370185E-11
  3.53203430000000E-01  6.84285310000000E-01  3.33333333350000E-01
  3.53203430000000E-01  6.84285310000000E-01  6.66666666700000E-01
  6.46796570000000E-01  3.15714690000000E-01  5.00000041370185E-11
  6.46796570000000E-01  3.15714690000000E-01  3.33333333350000E-01
  6.46796570000000E-01  3.15714690000000E-01  6.66666666700000E-01
  3.15714690000000E-01  3.53203430000000E-01  1.66666666700000E-01
  3.15714690000000E-01  3.53203430000000E-01  5.00000000050000E-01
  3.15714690000000E-01  3.53203430000000E-01  8.33333333350000E-01
  6.84285310000000E-01  6.46796570000000E-01  1.66666666700000E-01
  6.84285310000000E-01  6.46796570000000E-01  5.00000000050000E-01
  6.84285310000000E-01  6.46796570000000E-01  8.33333333350000E-01
  5.84529210000000E-01  7.29016620000000E-01  5.00000041370185E-11
  5.84529210000000E-01  7.29016620000000E-01  3.33333333350000E-01
  5.84529210000000E-01  7.29016620000000E-01  6.66666666700000E-01
  4.15470790000000E-01  2.70983380000000E-01  5.00000041370185E-11
  4.15470790000000E-01  2.70983380000000E-01  3.33333333350000E-01
  4.15470790000000E-01  2.70983380000000E-01  6.66666666700000E-01
  2.70983380000000E-01  5.84529210000000E-01  1.66666666700000E-01
  2.70983380000000E-01  5.84529210000000E-01  5.00000000050000E-01
  2.70983380000000E-01  5.84529210000000E-01  8.33333333350000E-01
  7.29016620000000E-01  4.15470790000000E-01  1.66666666700000E-01
  7.29016620000000E-01  4.15470790000000E-01  5.00000000050000E-01
  7.29016620000000E-01  4.15470790000000E-01  8.33333333350000E-01
  2.56056585000000E-01  8.92728540000000E-01  5.00000041370185E-11
  2.56056585000000E-01  8.92728540000000E-01  3.33333333350000E-01
  2.56056585000000E-01  8.92728540000000E-01  6.66666666700000E-01
  7.43943415000000E-01  1.07271460000000E-01  5.00000041370185E-11
  7.43943415000000E-01  1.07271460000000E-01  3.33333333350000E-01
  7.43943415000000E-01  1.07271460000000E-01  6.66666666700000E-01
  1.07271460000000E-01  2.56056585000000E-01  1.66666666700000E-01
  1.07271460000000E-01  2.56056585000000E-01  5.00000000050000E-01
  1.07271460000000E-01  2.56056585000000E-01  8.33333333350000E-01
  8.92728540000000E-01  7.43943415000000E-01  1.66666666700000E-01
  8.92728540000000E-01  7.43943415000000E-01  5.00000000050000E-01
  8.92728540000000E-01  7.43943415000000E-01  8.33333333350000E-01
 Scale of Primitive Cell (acell) [bohr]
  1.00000000000000E+00  1.00000000000000E+00  1.00000000000000E+00
 Real space primitive translations (rprimd) [bohr]
  1.51269760017000E+01  0.00000000000000E+00  0.00000000000000E+00
  0.00000000000000E+00  1.51269760017000E+01  0.00000000000000E+00
  0.00000000000000E+00  0.00000000000000E+00  1.81409733303000E+01
 Unitary Cell Volume (ucvol) [Bohr^3]=  4.15111553232009E+03
 Angles (23,13,12)= [degrees]
  9.00000000000000E+01  9.00000000000000E+01  9.00000000000000E+01
 Lengths [Bohr]
  1.51269760017000E+01  1.51269760017000E+01  1.81409733303000E+01

---SELF-CONSISTENT-FIELD CONVERGENCE--------------------------------------------
 FFT (fine) grid used in SCF cycle:

 getcut: wavevector=  0.0000  0.0000  0.0000  ngfft=  72  72  90
         ecut(hartree)=     20.000   => boxcut(ratio)=   2.36429

 getcut : COMMENT -
  Note that boxcut > 2.2 ; recall that boxcut=Gcut(box)/Gcut(sphere) = 2
  is sufficient for exact treatment of convolution.
  Such a large boxcut is a waste : you could raise ecut
  e.g. ecut=   27.949273 Hartrees makes boxcut=2


 1/G**2 cut-off applied in the following step : cutoff-mode = CRYSTAL

 1/G**2 cut-off applied in the following step : cutoff-mode = CRYSTAL

 1/G**2 cut-off applied in the following step : cutoff-mode = CRYSTAL

--- !WARNING
src_file: m_drivexc.F90
src_line: 784
message: |
    Density went too small (lower than xc_denpos) at 378 points
    and was set to xc_denpos =   1.00E-14. Lowest was  -0.84E-01.
    This might be due to (1) too low boxcut or (2) too low ecut for
     pseudopotential core charge, or (3) too low ecut for estimated initial density.
     Possible workarounds : increase ecut, or define the input variable densty,
     with a value larger than the guess for the decay length, or initialize your,
     density with a preliminary LDA or GGA-PBE if you are using a more exotic xc functional.
...


========== DFT+U DATA ===================================================

====== For Atom    1, occupations for correlated orbitals. l =   3

Atom   1. Occupations for spin up =   9.87098
Atom   1. Occupations for spin down =   2.96129
=> On atom   1, local Mag. is     -0.69096851E+01

== Calculated occupation matrix for correlated orbitals:

Calculated occupation matrix for component up
     1.41014    0.00000    0.00000    0.00000    0.00000    0.00000    0.00000
     0.00000    1.41014    0.00000    0.00000    0.00000    0.00000    0.00000
     0.00000    0.00000    1.41014    0.00000    0.00000    0.00000    0.00000
     0.00000    0.00000    0.00000    1.41014    0.00000    0.00000    0.00000
     0.00000    0.00000    0.00000    0.00000    1.41014    0.00000    0.00000
     0.00000    0.00000    0.00000    0.00000    0.00000    1.41014    0.00000
     0.00000    0.00000    0.00000    0.00000    0.00000    0.00000    1.41014

Calculated occupation matrix for component down
     0.42304    0.00000    0.00000    0.00000    0.00000    0.00000    0.00000
     0.00000    0.42304    0.00000    0.00000    0.00000    0.00000    0.00000
     0.00000    0.00000    0.42304    0.00000    0.00000    0.00000    0.00000
     0.00000    0.00000    0.00000    0.42304    0.00000    0.00000    0.00000
     0.00000    0.00000    0.00000    0.00000    0.42304    0.00000    0.00000
     0.00000    0.00000    0.00000    0.00000    0.00000    0.42304    0.00000
     0.00000    0.00000    0.00000    0.00000    0.00000    0.00000    0.42304
 average electrostatic smooth potential [Ha] , [eV]      0.000000        0.000000

 ****** Psp strength Dij in Ha (atom      1) *****
 Component up:
  -0.94717   0.03431  -0.00000  -0.00000  -0.00000  -0.00000  -0.00000  -0.00000  -0.00001   0.00000   0.00012   0.00000 ...
   0.03431  -0.09634   0.00000   0.00000   0.00000  -0.00000  -0.00000  -0.00000  -0.00000   0.00000   0.00000   0.00000 ...
  -0.00000   0.00000  -0.47383  -0.00000   0.00002  -0.07718   0.00000  -0.00007   0.00000  -0.00000  -0.00000   0.00000 ...
  -0.00000   0.00000  -0.00000  -0.47423  -0.00000   0.00000  -0.07573   0.00000   0.00000   0.00000   0.00000   0.00000 ...
  -0.00000   0.00000   0.00002  -0.00000  -0.47388  -0.00007   0.00000  -0.07698   0.00000   0.00000  -0.00000  -0.00000 ...
  -0.00000  -0.00000  -0.07718   0.00000  -0.00007   1.44080  -0.00000   0.00002  -0.00000   0.00000   0.00000  -0.00000 ...
  -0.00000  -0.00000   0.00000  -0.07573   0.00000  -0.00000   1.44041  -0.00000  -0.00000  -0.00000  -0.00000  -0.00000 ...
  -0.00000  -0.00000  -0.00007   0.00000  -0.07698   0.00002  -0.00000   1.44075  -0.00000  -0.00000   0.00000   0.00000 ...
  -0.00001  -0.00000   0.00000   0.00000   0.00000  -0.00000  -0.00000  -0.00000  -0.09109   0.00000  -0.00000  -0.00000 ...
   0.00000   0.00000  -0.00000   0.00000   0.00000   0.00000  -0.00000  -0.00000   0.00000  -0.09110  -0.00000   0.00000 ...
   0.00012   0.00000  -0.00000   0.00000  -0.00000   0.00000  -0.00000   0.00000  -0.00000  -0.00000  -0.09110  -0.00000 ...
   0.00000   0.00000   0.00000   0.00000  -0.00000  -0.00000  -0.00000   0.00000  -0.00000   0.00000  -0.00000  -0.09110 ...
   ...  only 12  components have been written...
 Component down:
  -0.86365   0.04062  -0.00000  -0.00000  -0.00000  -0.00000  -0.00000  -0.00000  -0.00001   0.00000   0.00012  -0.00000 ...
   0.04062  -0.09541   0.00000   0.00000   0.00000  -0.00000  -0.00000  -0.00000  -0.00000   0.00000   0.00000  -0.00000 ...
  -0.00000   0.00000  -0.41583  -0.00000   0.00002  -0.13830   0.00000  -0.00007   0.00000  -0.00000  -0.00000   0.00000 ...
  -0.00000   0.00000  -0.00000  -0.41624   0.00000   0.00000  -0.13684  -0.00000   0.00000   0.00000   0.00000   0.00000 ...
  -0.00000   0.00000   0.00002   0.00000  -0.41589  -0.00007  -0.00000  -0.13810   0.00000   0.00000  -0.00000  -0.00000 ...
  -0.00000  -0.00000  -0.13830   0.00000  -0.00007   1.50243  -0.00000   0.00002  -0.00000   0.00000   0.00000  -0.00000 ...
  -0.00000  -0.00000   0.00000  -0.13684  -0.00000  -0.00000   1.50204   0.00000  -0.00000  -0.00000  -0.00000  -0.00000 ...
  -0.00000  -0.00000  -0.00007  -0.00000  -0.13810   0.00002   0.00000   1.50238  -0.00000  -0.00000   0.00000   0.00000 ...
  -0.00001  -0.00000   0.00000   0.00000   0.00000  -0.00000  -0.00000  -0.00000  -0.07818   0.00000  -0.00000  -0.00000 ...
   0.00000   0.00000  -0.00000   0.00000   0.00000   0.00000  -0.00000  -0.00000   0.00000  -0.07818  -0.00000   0.00000 ...
   0.00012   0.00000  -0.00000   0.00000  -0.00000   0.00000  -0.00000   0.00000  -0.00000  -0.00000  -0.07818   0.00000 ...
  -0.00000  -0.00000   0.00000   0.00000  -0.00000  -0.00000  -0.00000   0.00000  -0.00000   0.00000   0.00000  -0.07818 ...
   ...  only 12  components have been written...


 ITER STEP NUMBER     1
 Max number of non-self-consistent loops: 2
 You should try to get npband*bandpp=  180
 For information matrix size is     9120
- Will use non-blocking ialltoall for MPI-FFT
 You should try to get npband*bandpp=  180
 For information matrix size is     9120

 PAW TEST:
 ========= Values of RHOIJ before symetrization =========

 Atom #  1 - Spin component 1
   0.00264   0.08354   0.00002  -0.00000  -0.00001   0.00001   0.00002  -0.00001   0.00014  -0.00004   0.00036   0.00001 ...
   0.08354   2.66998   0.00037  -0.00041  -0.00028   0.00007   0.00033  -0.00014   0.00843  -0.00035   0.00857   0.00088 ...
   0.00002   0.00037   0.01160   0.00001  -0.00980   0.01123  -0.00003  -0.00902  -0.00003   0.00009  -0.00002  -0.00001 ...
  -0.00000  -0.00041   0.00001   0.01098  -0.00005   0.00006   0.01064  -0.00004  -0.00004  -0.00002  -0.00002  -0.00005 ...
  -0.00001  -0.00028  -0.00980  -0.00005   0.02421  -0.00901  -0.00006   0.02276   0.00007  -0.00000   0.00027   0.00004 ...
   0.00001   0.00007   0.01123   0.00006  -0.00901   0.01090   0.00002  -0.00829  -0.00006   0.00006   0.00006  -0.00000 ...
   0.00002   0.00033  -0.00003   0.01064  -0.00006   0.00002   0.01035  -0.00005  -0.00000   0.00001   0.00006  -0.00000 ...
  -0.00001  -0.00014  -0.00902  -0.00004   0.02276  -0.00829  -0.00005   0.02145   0.00011  -0.00005   0.00022   0.00007 ...
   0.00014   0.00843  -0.00003  -0.00004   0.00007  -0.00006  -0.00000   0.00011   0.04759  -0.00002   0.00193   0.00004 ...
  -0.00004  -0.00035   0.00009  -0.00002  -0.00000   0.00006   0.00001  -0.00005  -0.00002   0.01058   0.00008  -0.00067 ...
   0.00036   0.00857  -0.00002  -0.00002   0.00027   0.00006   0.00006   0.00022   0.00193   0.00008   0.05438   0.00008 ...
   0.00001   0.00088  -0.00001  -0.00005   0.00004  -0.00000  -0.00000   0.00007   0.00004  -0.00067   0.00008   0.00804 ...
   ...  only 12  components have been written...
 Atom #  1 - Spin component 2
   1.82522  -2.69315  -0.00038  -0.00015  -0.00079   0.00026   0.00047   0.00098   0.00175   0.00141   0.00187  -0.00045 ...
  -2.69315   4.44539  -0.00014   0.00123   0.00432  -0.00053  -0.00050  -0.00114  -0.00519  -0.00165  -0.00013  -0.00003 ...
  -0.00038  -0.00014   0.87514  -0.00002   0.00203   0.10879  -0.00012  -0.00004   0.00055  -0.00087  -0.00066  -0.00031 ...
  -0.00015   0.00123  -0.00002   0.87390   0.00011   0.00010   0.11016  -0.00009   0.00022   0.00031  -0.00015  -0.00005 ...
  -0.00079   0.00432   0.00203   0.00011   0.87299  -0.00017  -0.00012   0.10902   0.00128   0.00009   0.00035   0.00005 ...
   0.00026  -0.00053   0.10879   0.00010  -0.00017   0.01488   0.00002  -0.00004   0.00004  -0.00008  -0.00005   0.00000 ...
   0.00047  -0.00050  -0.00012   0.11016  -0.00012   0.00002   0.01511  -0.00002   0.00003   0.00001  -0.00003  -0.00003 ...
   0.00098  -0.00114  -0.00004  -0.00009   0.10902  -0.00004  -0.00002   0.01471   0.00007   0.00004   0.00003  -0.00001 ...
   0.00175  -0.00519   0.00055   0.00022   0.00128   0.00004   0.00003   0.00007   0.00487  -0.00016   0.00019   0.00014 ...
   0.00141  -0.00165  -0.00087   0.00031   0.00009  -0.00008   0.00001   0.00004  -0.00016   0.00933  -0.00000  -0.00044 ...
   0.00187  -0.00013  -0.00066  -0.00015   0.00035  -0.00005  -0.00003   0.00003   0.00019  -0.00000   0.00186   0.00013 ...
  -0.00045  -0.00003  -0.00031  -0.00005   0.00005   0.00000  -0.00003  -0.00001   0.00014  -0.00044   0.00013   0.00783 ...
   ...  only 12  components have been written...
 Atom #  3 - Spin component 1
   1.00517   0.02147   0.00016  -0.00072  -0.00006  -0.00001   0.00013   0.00033   0.00052  -0.00031   0.00416  -0.00068 ...
   0.02147   0.32143   0.00138  -0.01074  -0.00149  -0.00020   0.00355   0.00013  -0.05644  -0.00175   0.04371  -0.00069 ...
   0.00016   0.00138   0.99126  -0.00001  -0.00053  -0.00262   0.00026   0.00007   0.00025  -0.00260   0.00042   0.00117 ...
  -0.00072  -0.01074  -0.00001   0.98992   0.00002  -0.00006  -0.00078  -0.00002  -0.00590   0.00027  -0.00843  -0.00053 ...
  -0.00006  -0.00149  -0.00053   0.00002   0.98992  -0.00017   0.00032  -0.00245   0.00005  -0.00119  -0.00048  -0.00324 ...
  -0.00001  -0.00020  -0.00262  -0.00006  -0.00017   0.00273  -0.00001  -0.00011   0.00003  -0.00018  -0.00003  -0.00061 ...
   0.00013   0.00355   0.00026  -0.00078   0.00032  -0.00001   0.00299   0.00000   0.00336  -0.00010   0.00413   0.00004 ...
   0.00033   0.00013   0.00007  -0.00002  -0.00245  -0.00011   0.00000   0.00258  -0.00021   0.00045   0.00002   0.00072 ...
   0.00052  -0.05644   0.00025  -0.00590   0.00005   0.00003   0.00336  -0.00021   0.30681   0.00049   0.01855  -0.00074 ...
  -0.00031  -0.00175  -0.00260   0.00027  -0.00119  -0.00018  -0.00010   0.00045   0.00049   0.08972  -0.00281  -0.00242 ...
   0.00416   0.04371   0.00042  -0.00843  -0.00048  -0.00003   0.00413   0.00002   0.01855  -0.00281   0.32411  -0.00133 ...
  -0.00068  -0.00069   0.00117  -0.00053  -0.00324  -0.00061   0.00004   0.00072  -0.00074  -0.00242  -0.00133   0.06692 ...
   ...  only 12  components have been written...
 Atom #  3 - Spin component 2
   1.00482   0.02256   0.00001  -0.00042  -0.00005  -0.00006   0.00012   0.00014   0.00007  -0.00008   0.00411   0.00055 ...
   0.02256   0.16773   0.00059  -0.00619  -0.00071  -0.00026   0.00068   0.00006  -0.00351  -0.00024   0.00465   0.00030 ...
   0.00001   0.00059   0.99042   0.00007   0.00016  -0.00216   0.00016  -0.00040  -0.00023  -0.00293   0.00023   0.00021 ...
  -0.00042  -0.00619   0.00007   0.98995  -0.00007  -0.00004  -0.00057   0.00002  -0.00054   0.00074  -0.00482  -0.00152 ...
  -0.00005  -0.00071   0.00016  -0.00007   0.98927  -0.00017  -0.00000  -0.00175  -0.00061   0.00005  -0.00015  -0.00426 ...
  -0.00006  -0.00026  -0.00216  -0.00004  -0.00017   0.00246   0.00002   0.00013   0.00001   0.00019   0.00003   0.00001 ...
   0.00012   0.00068   0.00016  -0.00057  -0.00000   0.00002   0.00242  -0.00001   0.00005  -0.00006   0.00052   0.00013 ...
   0.00014   0.00006  -0.00040   0.00002  -0.00175   0.00013  -0.00001   0.00231  -0.00004  -0.00012   0.00005   0.00006 ...
   0.00007  -0.00351  -0.00023  -0.00054  -0.00061   0.00001   0.00005  -0.00004   0.04203   0.00016   0.00114   0.00013 ...
  -0.00008  -0.00024  -0.00293   0.00074   0.00005   0.00019  -0.00006  -0.00012   0.00016   0.08976   0.00024  -0.00460 ...
   0.00411   0.00465   0.00023  -0.00482  -0.00015   0.00003   0.00052   0.00005   0.00114   0.00024   0.02056   0.00025 ...
   0.00055   0.00030   0.00021  -0.00152  -0.00426   0.00001   0.00013   0.00006   0.00013  -0.00460   0.00025   0.06647 ...
   ...  only 12  components have been written...


 PAW TEST:
 ========= Values of RHOIJ after symetrization =========

 Atom #  1 - Spin component 1
   0.00264   0.08354   0.00000   0.00000   0.00000   0.00000   0.00000   0.00000   0.00014   0.00000   0.00036   0.00000 ...
   0.08354   2.66998   0.00000   0.00000   0.00000   0.00000   0.00000   0.00000   0.00843   0.00000   0.00857   0.00000 ...
   0.00000   0.00000   0.01160   0.00000  -0.00980   0.01123   0.00000  -0.00902   0.00000   0.00000   0.00000   0.00000 ...
   0.00000   0.00000   0.00000   0.01098   0.00000   0.00000   0.01064   0.00000   0.00000   0.00000   0.00000   0.00000 ...
   0.00000   0.00000  -0.00980   0.00000   0.02421  -0.00901   0.00000   0.02276   0.00000   0.00000   0.00000   0.00000 ...
   0.00000   0.00000   0.01123   0.00000  -0.00901   0.01090   0.00000  -0.00829   0.00000   0.00000   0.00000   0.00000 ...
   0.00000   0.00000   0.00000   0.01064   0.00000   0.00000   0.01035   0.00000   0.00000   0.00000   0.00000   0.00000 ...
   0.00000   0.00000  -0.00902   0.00000   0.02276  -0.00829   0.00000   0.02145   0.00000   0.00000   0.00000   0.00000 ...
   0.00014   0.00843   0.00000   0.00000   0.00000   0.00000   0.00000   0.00000   0.04759   0.00000   0.00193   0.00000 ...
   0.00000   0.00000   0.00000   0.00000   0.00000   0.00000   0.00000   0.00000   0.00000   0.01058   0.00000  -0.00067 ...
   0.00036   0.00857   0.00000   0.00000   0.00000   0.00000   0.00000   0.00000   0.00193   0.00000   0.05438   0.00000 ...
   0.00000   0.00000   0.00000   0.00000   0.00000   0.00000   0.00000   0.00000   0.00000  -0.00067   0.00000   0.00804 ...
   ...  only 12  components have been written...
 Atom #  1 - Spin component 2
   1.82522  -2.69315   0.00000   0.00000   0.00000   0.00000   0.00000   0.00000   0.00175   0.00000   0.00187   0.00000 ...
  -2.69315   4.44539   0.00000   0.00000   0.00000   0.00000   0.00000   0.00000  -0.00519   0.00000  -0.00013   0.00000 ...
   0.00000   0.00000   0.87514   0.00000   0.00203   0.10879   0.00000  -0.00004   0.00000   0.00000   0.00000   0.00000 ...
   0.00000   0.00000   0.00000   0.87390   0.00000   0.00000   0.11016   0.00000   0.00000   0.00000   0.00000   0.00000 ...
   0.00000   0.00000   0.00203   0.00000   0.87299  -0.00017   0.00000   0.10902   0.00000   0.00000   0.00000   0.00000 ...
   0.00000   0.00000   0.10879   0.00000  -0.00017   0.01488   0.00000  -0.00004   0.00000   0.00000   0.00000   0.00000 ...
   0.00000   0.00000   0.00000   0.11016   0.00000   0.00000   0.01511   0.00000   0.00000   0.00000   0.00000   0.00000 ...
   0.00000   0.00000  -0.00004   0.00000   0.10902  -0.00004   0.00000   0.01471   0.00000   0.00000   0.00000   0.00000 ...
   0.00175  -0.00519   0.00000   0.00000   0.00000   0.00000   0.00000   0.00000   0.00487   0.00000   0.00019   0.00000 ...
   0.00000   0.00000   0.00000   0.00000   0.00000   0.00000   0.00000   0.00000   0.00000   0.00933   0.00000  -0.00044 ...
   0.00187  -0.00013   0.00000   0.00000   0.00000   0.00000   0.00000   0.00000   0.00019   0.00000   0.00186   0.00000 ...
   0.00000   0.00000   0.00000   0.00000   0.00000   0.00000   0.00000   0.00000   0.00000  -0.00044   0.00000   0.00783 ...
   ...  only 12  components have been written...
 Atom #  3 - Spin component 1
   1.00489   0.02048   0.00000  -0.00051   0.00000   0.00000   0.00007   0.00000   0.00034   0.00000   0.00376   0.00000 ...
   0.02048   0.32358   0.00000  -0.00865   0.00000   0.00000   0.00358   0.00000  -0.05562   0.00000   0.04381   0.00000 ...
   0.00000   0.00000   0.99120   0.00000  -0.00059  -0.00263   0.00000   0.00014   0.00000  -0.00155   0.00000   0.00151 ...
  -0.00051  -0.00865   0.00000   0.98990   0.00000   0.00000  -0.00085   0.00000  -0.00612   0.00000  -0.00791   0.00000 ...
   0.00000   0.00000  -0.00059   0.00000   0.98999  -0.00013   0.00000  -0.00223   0.00000  -0.00089   0.00000  -0.00345 ...
   0.00000   0.00000  -0.00263   0.00000  -0.00013   0.00275   0.00000  -0.00010   0.00000  -0.00027   0.00000  -0.00069 ...
   0.00007   0.00358   0.00000  -0.00085   0.00000   0.00000   0.00301   0.00000   0.00328   0.00000   0.00422   0.00000 ...
   0.00000   0.00000   0.00014   0.00000  -0.00223  -0.00010   0.00000   0.00256   0.00000   0.00041   0.00000   0.00078 ...
   0.00034  -0.05562   0.00000  -0.00612   0.00000   0.00000   0.00328   0.00000   0.30797   0.00000   0.01824   0.00000 ...
   0.00000   0.00000  -0.00155   0.00000  -0.00089  -0.00027   0.00000   0.00041   0.00000   0.09022   0.00000  -0.00291 ...
   0.00376   0.04381   0.00000  -0.00791   0.00000   0.00000   0.00422   0.00000   0.01824   0.00000   0.32570   0.00000 ...
   0.00000   0.00000   0.00151   0.00000  -0.00345  -0.00069   0.00000   0.00078   0.00000  -0.00291   0.00000   0.06870 ...
   ...  only 12  components have been written...
 Atom #  3 - Spin component 2
   1.00470   0.02209   0.00000  -0.00057   0.00000   0.00000   0.00006   0.00000  -0.00023   0.00000   0.00385   0.00000 ...
   0.02209   0.16856   0.00000  -0.00672   0.00000   0.00000   0.00077   0.00000  -0.00379   0.00000   0.00457   0.00000 ...
   0.00000   0.00000   0.99050   0.00000   0.00013  -0.00218   0.00000  -0.00032   0.00000  -0.00236   0.00000   0.00044 ...
  -0.00057  -0.00672   0.00000   0.98995   0.00000   0.00000  -0.00052   0.00000  -0.00028   0.00000  -0.00470   0.00000 ...
   0.00000   0.00000   0.00013   0.00000   0.98927  -0.00021   0.00000  -0.00166   0.00000   0.00075   0.00000  -0.00376 ...
   0.00000   0.00000  -0.00218   0.00000  -0.00021   0.00249   0.00000   0.00014   0.00000   0.00017   0.00000  -0.00000 ...
   0.00006   0.00077   0.00000  -0.00052   0.00000   0.00000   0.00242   0.00000  -0.00007   0.00000   0.00052   0.00000 ...
   0.00000   0.00000  -0.00032   0.00000  -0.00166   0.00014   0.00000   0.00230   0.00000  -0.00022   0.00000   0.00008 ...
  -0.00023  -0.00379   0.00000  -0.00028   0.00000   0.00000  -0.00007   0.00000   0.04162   0.00000   0.00115   0.00000 ...
   0.00000   0.00000  -0.00236   0.00000   0.00075   0.00017   0.00000  -0.00022   0.00000   0.08998   0.00000  -0.00452 ...
   0.00385   0.00457   0.00000  -0.00470   0.00000   0.00000   0.00052   0.00000   0.00115   0.00000   0.02041   0.00000 ...
   0.00000   0.00000   0.00044   0.00000  -0.00376  -0.00000   0.00000   0.00008   0.00000  -0.00452   0.00000   0.06678 ...
   ...  only 12  components have been written...

 Total charge density [el/Bohr^3]
)     Maximum=    1.4805E+00  at reduced coord.    0.1806    0.1250    0.0000
)     Minimum=   -1.7934E-03  at reduced coord.    0.3194    0.3472    0.0000
   Integrated=    2.7100E+02
 Spin up density      [el/Bohr^3]
)     Maximum=    7.4210E-01  at reduced coord.    0.1806    0.1250    0.0000
)     Minimum=   -1.0611E-03  at reduced coord.    0.3194    0.3472    0.0000
   Integrated=    1.3900E+02
 Spin down density    [el/Bohr^3]
)     Maximum=    1.0586E+00  at reduced coord.    0.5000    0.0000    0.0000
)     Minimum=   -7.3232E-04  at reduced coord.    0.3194    0.3472    0.0000
   Integrated=    1.3200E+02
 Magnetization (spin up - spin down) [el/Bohr^3]
)     Maximum=    2.8326E-02  at reduced coord.    0.1250    0.2361    0.0000
[...]
                       1.000000  1.000000  1.000000  1.000000  1.000000  1.000000
                       1.000000  1.000000  1.000000  1.000000  1.000000  1.000000
                       1.000000  1.000000  1.000000  1.000000  1.000000  1.000000
                       1.000000  1.000000  1.000000  1.000000  1.000000  1.000000
                       1.000000  1.000000  1.000000  1.000000  1.000000  1.000000
                       1.000000  1.000000  1.000000  1.000000  1.000000  1.000000
                       0.000000  0.000000  0.000000  0.000000  0.000000  0.000000
                       0.000000  0.000000  0.000000  0.000000  0.000000  0.000000
                       0.000000  0.000000  0.000000  0.000000  0.000000  0.000000
                       0.000000  0.000000  0.000000  0.000000  0.000000  0.000000
                       0.000000  0.000000  0.000000  0.000000  0.000000  0.000000
                       0.000000  0.000000  0.000000  0.000000  0.000000  0.000000
                       0.000000  0.000000  0.000000  0.000000  0.000000  0.000000
                       0.000000  0.000000  0.000000  0.000000  0.000000  0.000000
           occopt           2
          optcell           2
        optforces           1
        paral_kgb           1
        pawecutdg      2.00000000E+01 Hartree
         pawmixdg           1
            prtwf           0
            rprim      9.9999999999E-01  4.9070149376E-06  0.0000000000E+00
                       4.9072154482E-06  9.9999999999E-01  0.0000000000E+00
                       0.0000000000E+00  0.0000000000E+00  1.0000000000E+00
          spgroup          10
           spinat      0.0000000000E+00  0.0000000000E+00  7.0000000000E+00
                       0.0000000000E+00  0.0000000000E+00  0.0000000000E+00
                       0.0000000000E+00  0.0000000000E+00  0.0000000000E+00
                       0.0000000000E+00  0.0000000000E+00  0.0000000000E+00
                       0.0000000000E+00  0.0000000000E+00  0.0000000000E+00
                       0.0000000000E+00  0.0000000000E+00  0.0000000000E+00
                       0.0000000000E+00  0.0000000000E+00  0.0000000000E+00
                       0.0000000000E+00  0.0000000000E+00  0.0000000000E+00
                       0.0000000000E+00  0.0000000000E+00  0.0000000000E+00
                       0.0000000000E+00  0.0000000000E+00  0.0000000000E+00
                       0.0000000000E+00  0.0000000000E+00  0.0000000000E+00
                       0.0000000000E+00  0.0000000000E+00  0.0000000000E+00
                       0.0000000000E+00  0.0000000000E+00  0.0000000000E+00
                       0.0000000000E+00  0.0000000000E+00  0.0000000000E+00
                       0.0000000000E+00  0.0000000000E+00  0.0000000000E+00
                       0.0000000000E+00  0.0000000000E+00  0.0000000000E+00
                       0.0000000000E+00  0.0000000000E+00  0.0000000000E+00
                       0.0000000000E+00  0.0000000000E+00  0.0000000000E+00
                       0.0000000000E+00  0.0000000000E+00  0.0000000000E+00
                       0.0000000000E+00  0.0000000000E+00  0.0000000000E+00
                       0.0000000000E+00  0.0000000000E+00  0.0000000000E+00
                       0.0000000000E+00  0.0000000000E+00  0.0000000000E+00
                       0.0000000000E+00  0.0000000000E+00  0.0000000000E+00
                       0.0000000000E+00  0.0000000000E+00  0.0000000000E+00
                       0.0000000000E+00  0.0000000000E+00  0.0000000000E+00
                       0.0000000000E+00  0.0000000000E+00  0.0000000000E+00
                       0.0000000000E+00  0.0000000000E+00  0.0000000000E+00
                       0.0000000000E+00  0.0000000000E+00  0.0000000000E+00
                       0.0000000000E+00  0.0000000000E+00  0.0000000000E+00
                       0.0000000000E+00  0.0000000000E+00  0.0000000000E+00
                       0.0000000000E+00  0.0000000000E+00  0.0000000000E+00
                       0.0000000000E+00  0.0000000000E+00  0.0000000000E+00
                       0.0000000000E+00  0.0000000000E+00  0.0000000000E+00
                       0.0000000000E+00  0.0000000000E+00  0.0000000000E+00
                       0.0000000000E+00  0.0000000000E+00  0.0000000000E+00
                       0.0000000000E+00  0.0000000000E+00  0.0000000000E+00
                       0.0000000000E+00  0.0000000000E+00  0.0000000000E+00
                       0.0000000000E+00  0.0000000000E+00  0.0000000000E+00
                       0.0000000000E+00  0.0000000000E+00  0.0000000000E+00
                       0.0000000000E+00  0.0000000000E+00  0.0000000000E+00
                       0.0000000000E+00  0.0000000000E+00  0.0000000000E+00
                       0.0000000000E+00  0.0000000000E+00  0.0000000000E+00
                       0.0000000000E+00  0.0000000000E+00  0.0000000000E+00
                       0.0000000000E+00  0.0000000000E+00  0.0000000000E+00
                       0.0000000000E+00  0.0000000000E+00  0.0000000000E+00
                       0.0000000000E+00  0.0000000000E+00  0.0000000000E+00
                       0.0000000000E+00  0.0000000000E+00  0.0000000000E+00
                       0.0000000000E+00  0.0000000000E+00  0.0000000000E+00
                       0.0000000000E+00  0.0000000000E+00  0.0000000000E+00
                       0.0000000000E+00  0.0000000000E+00  0.0000000000E+00
                       0.0000000000E+00  0.0000000000E+00  0.0000000000E+00
                       0.0000000000E+00  0.0000000000E+00  0.0000000000E+00
                       0.0000000000E+00  0.0000000000E+00  0.0000000000E+00
                       0.0000000000E+00  0.0000000000E+00  0.0000000000E+00
           strten     -2.2218286451E-06 -1.7540518168E-06 -7.5998406483E-06
                       0.0000000000E+00  0.0000000000E+00 -1.4288455761E-06
           symrel      1  0  0   0  1  0   0  0  1      -1  0  0   0 -1  0   0  0 -1
                      -1  0  0   0 -1  0   0  0  1       1  0  0   0  1  0   0  0 -1
            tnons      0.0000000  0.0000000  0.0000000    -0.0000000  0.0000000  0.3333333
                      -0.0000000  0.0000000  0.0000000     0.0000000  0.0000000  0.3333333
           toldff      1.00000000E-04
           tolmxf      1.00000000E-03
            typat      1  2  2  2  2  2  3  3  3  3  3  3  3  3  3  3  3  3  4  4
                       4  4  4  4  4  4  4  4  4  4  5  5  5  5  5  5  5  5  5  5
                       5  5  6  6  6  6  6  6  6  6  6  6  6  6
            upawu      2.57245278E-01  0.00000000E+00  0.00000000E+00  0.00000000E+00  0.00000000E+00  0.00000000E+00 Hartree
          usepawu           1
           useylm           1
         wfoptalg         114
           xangst      3.9296744939E+00  1.9282971441E-05  1.5949858836E+00
                       3.9296744939E+00  1.9282971441E-05  4.7852586523E+00
                       3.9296744939E+00  1.9282971441E-05  7.9746284147E+00
                       1.9282971440E-05  3.9295139259E+00  1.0070133875E-04
                       1.9282971440E-05  3.9295139259E+00  3.1898710659E+00
                       1.9282971440E-05  3.9295139259E+00  6.3799435335E+00
                       9.4786464218E-01  6.5171786892E+00  1.5949858836E+00
                       9.4801788689E-01  6.5162001981E+00  4.7870264590E+00
                       9.4801788689E-01  6.5162001981E+00  7.9728606081E+00
                       6.9115229115E+00  1.3418877286E+00  1.5949858836E+00
                       6.9113696668E+00  1.3428662197E+00  4.7870264590E+00
                       6.9113696668E+00  1.3428662197E+00  7.9728606081E+00
                       1.3416373448E+00  9.4917149380E-01 -1.4768589189E-04
                       1.3416373448E+00  9.4917149380E-01  3.1901194531E+00
                       1.3423395814E+00  9.4955337879E-01  6.3799435335E+00
                       6.5177502088E+00  6.9098949240E+00 -1.4768589189E-04
                       6.5177502088E+00  6.9098949240E+00  3.1901194531E+00
                       6.5170479723E+00  6.9095130390E+00  6.3799435335E+00
                       2.7468879030E+00  5.3755672547E+00  4.4001437477E-04
                       2.7468879030E+00  5.3755672547E+00  3.1895317529E+00
                       2.7481203507E+00  5.3763059664E+00  6.3799435335E+00
                       5.1124996507E+00  2.4834991631E+00  4.4001437477E-04
                       5.1124996507E+00  2.4834991631E+00  3.1895317529E+00
                       5.1112672029E+00  2.4827604514E+00  6.3799435335E+00
                       2.4839829067E+00  2.7465922581E+00  1.5949858836E+00
                       2.4831428826E+00  2.7490645109E+00  4.7864781739E+00
                       2.4831428826E+00  2.7490645109E+00  7.9734088932E+00
                       5.3754046470E+00  5.1124741597E+00  1.5949858836E+00
                       5.3762446710E+00  5.1100019069E+00  4.7864781739E+00
                       5.3762446710E+00  5.1100019069E+00  7.9734088932E+00
                       4.5867636600E+00  5.7784624502E+00 -1.9742568788E-03
                       4.5867636600E+00  5.7784624502E+00  3.1919460241E+00
                       4.5871385003E+00  5.7819031177E+00  6.3799435335E+00
                       3.2726238936E+00  2.0806039676E+00 -1.9742568788E-03
                       3.2726238936E+00  2.0806039676E+00  3.1919460241E+00
                       3.2722490534E+00  2.0771633001E+00  6.3799435335E+00
                       2.0765953993E+00  4.5862688590E+00  1.5949858836E+00
                       2.0768961782E+00  4.5877495014E+00  4.7852732730E+00
                       2.0768961782E+00  4.5877495014E+00  7.9746137941E+00
                       5.7827921543E+00  3.2727975588E+00  1.5949858836E+00
                       5.7824913754E+00  3.2713169164E+00  4.7852732730E+00
                       5.7824913754E+00  3.2713169164E+00  7.9746137941E+00
                       1.9380724746E+00  6.9965611826E+00 -2.5520761609E-03
                       1.9380724746E+00  6.9965611826E+00  3.1925238434E+00
                       1.9448465582E+00  6.9991034016E+00  6.3799435335E+00
                       5.9213150791E+00  8.6250523521E-01 -2.5520761609E-03
                       5.9213150791E+00  8.6250523521E-01  3.1925238434E+00
                       5.9145409954E+00  8.5996301621E-01  6.3799435335E+00
                       8.6202576522E-01  1.9435889268E+00  1.5949858836E+00
                       8.6136782531E-01  1.9450876849E+00  4.7857510262E+00
                       8.6136782531E-01  1.9450876849E+00  7.9741360408E+00
                       6.9973617884E+00  5.9154774910E+00  1.5949858836E+00
                       6.9980197283E+00  5.9139787329E+00  4.7857510262E+00
                       6.9980197283E+00  5.9139787329E+00  7.9741360408E+00
            xcart      7.4260085848E+00  3.6439535052E-05  3.0140865059E+00
                       7.4260085848E+00  3.6439535052E-05  9.0428283279E+00
                       7.4260085848E+00  3.6439535052E-05  1.5069863715E+01
                       3.6439535051E-05  7.4257051554E+00  1.9029795145E-04
                       3.6439535051E-05  7.4257051554E+00  6.0279827138E+00
                       3.6439535051E-05  7.4257051554E+00  1.2056346022E+01
                       1.7912045848E+00  1.2315682882E+01  3.0140865059E+00
                       1.7914941753E+00  1.2313833802E+01  9.0461689983E+00
                       1.7914941753E+00  1.2313833802E+01  1.5066523045E+01
                       1.3060885464E+01  2.5358003081E+00  3.0140865059E+00
                       1.3060595873E+01  2.5376493883E+00  9.0461689983E+00
                       1.3060595873E+01  2.5376493883E+00  1.5066523045E+01
                       2.5353271514E+00  1.7936741764E+00 -2.7908588936E-04
                       2.5353271514E+00  1.7936741764E+00  6.0284520976E+00
                       2.5366541862E+00  1.7943958345E+00  1.2056346022E+01
                       1.2316762897E+01  1.3057809013E+01 -2.7908588936E-04
                       1.2316762897E+01  1.3057809013E+01  6.0284520976E+00
                       1.2315435862E+01  1.3057087355E+01  1.2056346022E+01
                       5.1908658544E+00  1.0158349920E+01  8.3150666285E-04
                       5.1908658544E+00  1.0158349920E+01  6.0273415051E+00
                       5.1931948431E+00  1.0159745883E+01  1.2056346022E+01
                       9.6612241943E+00  4.6931332696E+00  8.3150666285E-04
                       9.6612241943E+00  4.6931332696E+00  6.0273415051E+00
                       9.6588952055E+00  4.6917373066E+00  1.2056346022E+01
                       4.6940474124E+00  5.1903071666E+00  3.0140865059E+00
                       4.6924599970E+00  5.1949790473E+00  9.0451328897E+00
                       4.6924599970E+00  5.1949790473E+00  1.5067559154E+01
                       1.0158042636E+01  9.6611760233E+00  3.0140865059E+00
                       1.0159630052E+01  9.6565041425E+00  9.0451328897E+00
                       1.0159630052E+01  9.6565041425E+00  1.5067559154E+01
                       8.6677271537E+00  1.0919711500E+01 -3.7308048169E-03
                       8.6677271537E+00  1.0919711500E+01  6.0319038165E+00
                       8.6684354991E+00  1.0926213419E+01  1.2056346022E+01
                       6.1843628949E+00  3.9317716898E+00 -3.7308048169E-03
                       6.1843628949E+00  3.9317716898E+00  6.0319038165E+00
                       6.1836545495E+00  3.9252697705E+00  1.2056346022E+01
                       3.9241965936E+00  8.6667921154E+00  3.0140865059E+00
                       3.9247649833E+00  8.6695901239E+00  9.0428559569E+00
                       3.9247649833E+00  8.6695901239E+00  1.5069836086E+01
                       1.0927893455E+01  6.1846910745E+00  3.0140865059E+00
                       1.0927325065E+01  6.1818930659E+00  9.0428559569E+00
                       1.0927325065E+01  6.1818930659E+00  1.5069836086E+01
                       3.6624262027E+00  1.3221584507E+01 -4.8227250144E-03
                       3.6624262027E+00  1.3221584507E+01  6.0329957367E+00
                       3.6752273655E+00  1.3226388605E+01  1.2056346022E+01
                       1.1189663846E+01  1.6298986827E+00 -4.8227250144E-03
                       1.1189663846E+01  1.6298986827E+00  6.0329957367E+00
                       1.1176862683E+01  1.6250945850E+00  1.2056346022E+01
                       1.6289926158E+00  3.6728507865E+00  3.0140865059E+00
                       1.6277492895E+00  3.6756830290E+00  9.0437587797E+00
                       1.6277492895E+00  3.6756830290E+00  1.5068933264E+01
                       1.3223097433E+01  1.1178632403E+01  3.0140865059E+00
                       1.3224340759E+01  1.1175800161E+01  9.0437587797E+00
                       1.3224340759E+01  1.1175800161E+01  1.5068933264E+01
             xred      5.0000000000E-01  4.1961550042E-23  1.6666666670E-01
                       5.0000000000E-01  4.1961550045E-23  5.0003145299E-01
                       5.0000000000E-01  4.1961550034E-23  8.3330188041E-01
                      -1.1130196213E-16  5.0000000000E-01  1.0522699062E-05
                      -1.1130196213E-16  5.0000000000E-01  3.3332281070E-01
                      -1.1130196213E-16  5.0000000000E-01  6.6666666670E-01
                       1.2059938584E-01  8.2925956760E-01  1.6666666670E-01
                       1.2061888485E-01  8.2913506214E-01  5.0021617841E-01
                       1.2061888485E-01  8.2913506214E-01  8.3311715499E-01
                       8.7940061416E-01  1.7074043240E-01  1.6666666670E-01
                       8.7938111515E-01  1.7086493786E-01  5.0021617841E-01
                       8.7938111515E-01  1.7086493786E-01  8.3311715499E-01
                       1.7070532040E-01  1.2077383212E-01 -1.5432309196E-05
                       1.7070532040E-01  1.2077383212E-01  3.3334876571E-01
                       1.7079467063E-01  1.2082242357E-01  6.6666666670E-01
                       8.2929467960E-01  8.7922616788E-01 -1.5432309196E-05
                       8.2929467960E-01  8.7922616788E-01  3.3334876571E-01
                       8.2920532937E-01  8.7917757643E-01  6.6666666670E-01
                       3.4950242422E-01  6.8399729293E-01  4.5978920501E-05
                       3.4950242422E-01  6.8399729293E-01  3.3328735448E-01
                       3.4965923671E-01  6.8409128748E-01  6.6666666670E-01
                       6.5049757578E-01  3.1600270707E-01  4.5978920501E-05
                       6.5049757578E-01  3.1600270707E-01  3.3328735448E-01
                       6.5034076329E-01  3.1590871252E-01  6.6666666670E-01
                       3.1605282225E-01  3.4948089268E-01  1.6666666670E-01
                       3.1594593856E-01  3.4979546809E-01  5.0015888584E-01
                       3.1594593856E-01  3.4979546809E-01  8.3317444756E-01
                       6.8394717775E-01  6.5051910732E-01  1.6666666670E-01
                       6.8405406144E-01  6.5020453191E-01  5.0015888584E-01
                       6.8405406144E-01  6.5020453191E-01  8.3317444756E-01
                       5.8360244737E-01  7.3526141552E-01 -2.0629826043E-04
                       5.8360244737E-01  7.3526141552E-01  3.3353963166E-01
                       5.8365013877E-01  7.3569921340E-01  6.6666666670E-01
                       4.1639755263E-01  2.6473858448E-01 -2.0629826043E-04
                       4.1639755263E-01  2.6473858448E-01  3.3353963166E-01
                       4.1634986123E-01  2.6430078660E-01  6.6666666670E-01
                       2.6421690866E-01  5.8356564650E-01  1.6666666670E-01
                       2.6425517794E-01  5.8375404651E-01  5.0003298076E-01
                       2.6425517794E-01  5.8375404651E-01  8.3330035264E-01
                       7.3578309134E-01  4.1643435350E-01  1.6666666670E-01
                       7.3574482206E-01  4.1624595349E-01  5.0003298076E-01
                       7.3574482206E-01  4.1624595349E-01  8.3330035264E-01
                       2.4659016212E-01  8.9025663282E-01 -2.6667698522E-04
                       2.4659016212E-01  8.9025663282E-01  3.3360001039E-01
                       2.4745207462E-01  8.9058010613E-01  6.6666666670E-01
                       7.5340983788E-01  1.0974336718E-01 -2.6667698522E-04
                       7.5340983788E-01  1.0974336718E-01  3.3360001039E-01
                       7.5254792538E-01  1.0941989387E-01  6.6666666670E-01
                       1.0968036016E-01  2.4730599426E-01  1.6666666670E-01
                       1.0959664493E-01  2.4749669996E-01  5.0008290317E-01
                       1.0959664493E-01  2.4749669996E-01  8.3325043023E-01
                       8.9031963984E-01  7.5269400574E-01  1.6666666670E-01
                       8.9040335507E-01  7.5250330004E-01  5.0008290317E-01
                       8.9040335507E-01  7.5250330004E-01  8.3325043023E-01
            znucl       63.00000   38.00000    3.00000   13.00000    7.00000    8.00000

================================================================================
  
 Proc.   0 individual time (sec): cpu=        168.6  wall=        176.8

 Calculation completed.
.Delivered   0 WARNINGs and  19 COMMENTs to log file.

--- !FinalSummary
program: abinit
version: 9.10.5
start_datetime: Fri Mar 15 14:46:56 2024
end_datetime: Fri Mar 15 14:49:53 2024
overall_cpu_time:       20987.6
overall_wall_time:       21211.4
exit_requested_by_user: no 
timelimit: 01:00:00 [hours]
pseudos: 
    Eu  : e8cbabbafd0770971513c9a2f9d66997
    Sr  : 8d54325f2e386e603a788e5591ec9c3e
    Li  : 2b42cf0006b30297d03a5c0dddd0d05e
    Al  : 38ec013e55acb62b3c542f2043f7ec30
    N   : aea9139712748acddb702675698d6c10
    O   : 13afe03f4a9dc9f4272ab72f1e9ef09a
usepaw: 1
mpi_procs: 128
omp_threads: 1
num_warnings: 0
num_comments: 19
...
