
.Version 9.10.5 of ABINIT 
.(MPI version, prepared for a x86_64_linux_gnu12.3 computer) 

.Copyright (C) 1998-2022 ABINIT group . 
 ABINIT comes with ABSOLUTELY NO WARRANTY.
 It is free software, and you are welcome to redistribute it
 under certain conditions (GNU General Public License,
 see ~abinit/COPYING or http://www.gnu.org/copyleft/gpl.txt).

 ABINIT is a project of the Universite Catholique de Louvain,
 Corning Inc. and other collaborators, see ~abinit/doc/developers/contributors.txt .
 Please read https://docs.abinit.org/theory/acknowledgments for suggested
 acknowledgments of the ABINIT effort.
 For more information, see https://www.abinit.org .

.Starting date : Fri 15 Mar 2024.
- ( at 14h46 )
  
- input  file    -> /gpfs/projects/acad/leds/DataBase_examples/adding_entry_to_DB/flow_lumi/w0/t0/run.abi
- output file    -> /gpfs/projects/acad/leds/DataBase_examples/adding_entry_to_DB/flow_lumi/w0/t0/run.abo
- root for input  files -> indata/in
- root for output files -> outdata/out

- inpspheads : Reading pseudopotential header in XML form from 
-   /gpfs/home/acad/ucl-modl/jbouq/paw-sr-11_pbe_standard_xml/Eu.xml
- inpspheads : Reading pseudopotential header in XML form from 
-   /gpfs/home/acad/ucl-modl/jbouq/paw-sr-11_pbe_standard_xml/Sr.xml
- inpspheads : Reading pseudopotential header in XML form from 
-   /gpfs/home/acad/ucl-modl/jbouq/paw-sr-11_pbe_standard_xml/Li.xml
- inpspheads : Reading pseudopotential header in XML form from 
-   /gpfs/home/acad/ucl-modl/jbouq/paw-sr-11_pbe_standard_xml/Al.xml
- inpspheads : Reading pseudopotential header in XML form from 
-   /gpfs/home/acad/ucl-modl/jbouq/paw-sr-11_pbe_standard_xml/N.xml
- inpspheads : Reading pseudopotential header in XML form from 
-   /gpfs/home/acad/ucl-modl/jbouq/paw-sr-11_pbe_standard_xml/O.xml

 Symmetries : space group P2/m (# 10); Bravais mP (primitive monocl.)
================================================================================
 Values of the parameters that define the memory need of the present run
     intxc =       0    ionmov =       2      iscf =      17    lmnmax =      32
     lnmax =       8     mgfft =      60  mpssoang =       4    mqgrid =    4200
     natom =      54  nloc_mem =       2    nspden =       2   nspinor =       1
    nsppol =       2      nsym =       4    n1xccc =       1    ntypat =       6
    occopt =       2   xclevel =       2
-    mband =         180        mffmem =           1         mkmem =           1
       mpw =          76          nfft =       27000          nkpt =           1
Pmy_natom=         3
 PAW method is used; the additional fine FFT grid is defined by:
   mgfftf=        90    nfftf =     77760
================================================================================
P This job should need less than                      74.144 Mbytes of memory.
  Rough estimation (10% accuracy) of disk space for files :
_ WF disk file :      2.507 Mbytes ; DEN or POT disk file :      1.189 Mbytes.
================================================================================

--------------------------------------------------------------------------------
------------- Echo of variables that govern the present computation ------------
--------------------------------------------------------------------------------
-
- outvars: echo of selected default values                                      
-   iomode0 =  0 , fftalg0 =312 , wfoptalg0 = 10
-
- outvars: echo of global parameters not present in the input file              
-  max_nthreads =    0
-
 -outvars: echo values of preprocessed input variables --------
-          iomode           1
            acell      1.0000000000E+00  1.0000000000E+00  1.0000000000E+00 Bohr
              amu      1.51965000E+02  8.76200000E+01  6.94100000E+00
                       2.69815390E+01  1.40067400E+01  1.59994000E+01
        autoparal           1
           bandpp           6
       chkdilatmx           0
          chkprim           0
      chksymbreak           0
     densfor_pred           6
           diemac      5.00000000E+00
          dilatmx      1.15000000E+00
             ecut      1.00000000E+01 Hartree
           ecutsm      5.00000000E-01 Hartree
-          fftalg         312
           ionmov           2
           istwfk        2
              ixc     -101130
            jpawu      2.57245278E-02  0.00000000E+00  0.00000000E+00  0.00000000E+00  0.00000000E+00  0.00000000E+00 Hartree
         kptrlatt        1    0    0      0    1    0      0    0    1
          kptrlen      1.51269760E+01
            lpawu           3      -1      -1      -1      -1      -1
P           mkmem           1
            natom          54
            nband         180     180
           nbdbuf          30
            ngfft          50      54      60
          ngfftdg          72      72      90
             nkpt           1
-          npband          10
-           npfft           6
-        np_spkpt           2
           nspden           2
           nsppol           2
            nstep         300
             nsym           4
            ntime        1000
           ntypat           6
              occ      1.000000  1.000000  1.000000  1.000000  1.000000  1.000000
                       1.000000  1.000000  1.000000  1.000000  1.000000  1.000000
                       1.000000  1.000000  1.000000  1.000000  1.000000  1.000000
                       1.000000  1.000000  1.000000  1.000000  1.000000  1.000000
                       1.000000  1.000000  1.000000  1.000000  1.000000  1.000000
                       1.000000  1.000000  1.000000  1.000000  1.000000  1.000000
                       1.000000  1.000000  1.000000  1.000000  1.000000  1.000000
                       1.000000  1.000000  1.000000  1.000000  1.000000  1.000000
                       1.000000  1.000000  1.000000  1.000000  1.000000  1.000000
                       1.000000  1.000000  1.000000  1.000000  1.000000  1.000000
                       1.000000  1.000000  1.000000  1.000000  1.000000  1.000000
                       1.000000  1.000000  1.000000  1.000000  1.000000  1.000000
                       1.000000  1.000000  1.000000  1.000000  1.000000  1.000000
                       1.000000  1.000000  1.000000  1.000000  1.000000  1.000000
                       1.000000  1.000000  1.000000  1.000000  1.000000  1.000000
                       1.000000  1.000000  1.000000  1.000000  1.000000  1.000000
                       1.000000  1.000000  1.000000  1.000000  1.000000  1.000000
                       1.000000  1.000000  1.000000  1.000000  1.000000  1.000000
                       1.000000  1.000000  1.000000  1.000000  1.000000  1.000000
                       1.000000  1.000000  1.000000  1.000000  1.000000  1.000000
                       1.000000  1.000000  1.000000  1.000000  1.000000  1.000000
                       1.000000  1.000000  1.000000  1.000000  1.000000  1.000000
                       1.000000  1.000000  1.000000  1.000000  1.000000  1.000000
                       1.000000  0.000000  0.000000  0.000000  0.000000  0.000000
                       0.000000  0.000000  0.000000  0.000000  0.000000  0.000000
                       0.000000  0.000000  0.000000  0.000000  0.000000  0.000000
                       0.000000  0.000000  0.000000  0.000000  0.000000  0.000000
                       0.000000  0.000000  0.000000  0.000000  0.000000  0.000000
                       0.000000  0.000000  0.000000  0.000000  0.000000  0.000000
                       0.000000  0.000000  0.000000  0.000000  0.000000  0.000000
                       1.000000  1.000000  1.000000  1.000000  1.000000  1.000000
                       1.000000  1.000000  1.000000  1.000000  1.000000  1.000000
                       1.000000  1.000000  1.000000  1.000000  1.000000  1.000000
                       1.000000  1.000000  1.000000  1.000000  1.000000  1.000000
                       1.000000  1.000000  1.000000  1.000000  1.000000  1.000000
                       1.000000  1.000000  1.000000  1.000000  1.000000  1.000000
                       1.000000  1.000000  1.000000  1.000000  1.000000  1.000000
                       1.000000  1.000000  1.000000  1.000000  1.000000  1.000000
                       1.000000  1.000000  1.000000  1.000000  1.000000  1.000000
                       1.000000  1.000000  1.000000  1.000000  1.000000  1.000000
                       1.000000  1.000000  1.000000  1.000000  1.000000  1.000000
                       1.000000  1.000000  1.000000  1.000000  1.000000  1.000000
                       1.000000  1.000000  1.000000  1.000000  1.000000  1.000000
                       1.000000  1.000000  1.000000  1.000000  1.000000  1.000000
                       1.000000  1.000000  1.000000  1.000000  1.000000  1.000000
                       1.000000  1.000000  1.000000  1.000000  1.000000  1.000000
                       1.000000  1.000000  1.000000  1.000000  1.000000  1.000000
                       1.000000  1.000000  1.000000  1.000000  1.000000  1.000000
                       1.000000  1.000000  1.000000  1.000000  1.000000  1.000000
                       1.000000  1.000000  1.000000  1.000000  1.000000  1.000000
                       1.000000  1.000000  1.000000  1.000000  1.000000  1.000000
                       1.000000  1.000000  1.000000  1.000000  1.000000  1.000000
                       0.000000  0.000000  0.000000  0.000000  0.000000  0.000000
                       0.000000  0.000000  0.000000  0.000000  0.000000  0.000000
                       0.000000  0.000000  0.000000  0.000000  0.000000  0.000000
                       0.000000  0.000000  0.000000  0.000000  0.000000  0.000000
                       0.000000  0.000000  0.000000  0.000000  0.000000  0.000000
                       0.000000  0.000000  0.000000  0.000000  0.000000  0.000000
                       0.000000  0.000000  0.000000  0.000000  0.000000  0.000000
                       0.000000  0.000000  0.000000  0.000000  0.000000  0.000000
           occopt           2
          optcell           2
        optforces           1
        paral_kgb           1
        pawecutdg      2.00000000E+01 Hartree
         pawmixdg           1
            prtwf           0
            rprim      1.5126976002E+01  0.0000000000E+00  0.0000000000E+00
                       0.0000000000E+00  1.5126976002E+01  0.0000000000E+00
                       0.0000000000E+00  0.0000000000E+00  1.8140973330E+01
          spgroup          10
           spinat      0.0000000000E+00  0.0000000000E+00  7.0000000000E+00
                       0.0000000000E+00  0.0000000000E+00  0.0000000000E+00
                       0.0000000000E+00  0.0000000000E+00  0.0000000000E+00
                       0.0000000000E+00  0.0000000000E+00  0.0000000000E+00
                       0.0000000000E+00  0.0000000000E+00  0.0000000000E+00
                       0.0000000000E+00  0.0000000000E+00  0.0000000000E+00
                       0.0000000000E+00  0.0000000000E+00  0.0000000000E+00
                       0.0000000000E+00  0.0000000000E+00  0.0000000000E+00
                       0.0000000000E+00  0.0000000000E+00  0.0000000000E+00
                       0.0000000000E+00  0.0000000000E+00  0.0000000000E+00
                       0.0000000000E+00  0.0000000000E+00  0.0000000000E+00
                       0.0000000000E+00  0.0000000000E+00  0.0000000000E+00
                       0.0000000000E+00  0.0000000000E+00  0.0000000000E+00
                       0.0000000000E+00  0.0000000000E+00  0.0000000000E+00
                       0.0000000000E+00  0.0000000000E+00  0.0000000000E+00
                       0.0000000000E+00  0.0000000000E+00  0.0000000000E+00
                       0.0000000000E+00  0.0000000000E+00  0.0000000000E+00
                       0.0000000000E+00  0.0000000000E+00  0.0000000000E+00
                       0.0000000000E+00  0.0000000000E+00  0.0000000000E+00
                       0.0000000000E+00  0.0000000000E+00  0.0000000000E+00
                       0.0000000000E+00  0.0000000000E+00  0.0000000000E+00
                       0.0000000000E+00  0.0000000000E+00  0.0000000000E+00
                       0.0000000000E+00  0.0000000000E+00  0.0000000000E+00
                       0.0000000000E+00  0.0000000000E+00  0.0000000000E+00
                       0.0000000000E+00  0.0000000000E+00  0.0000000000E+00
                       0.0000000000E+00  0.0000000000E+00  0.0000000000E+00
                       0.0000000000E+00  0.0000000000E+00  0.0000000000E+00
                       0.0000000000E+00  0.0000000000E+00  0.0000000000E+00
                       0.0000000000E+00  0.0000000000E+00  0.0000000000E+00
                       0.0000000000E+00  0.0000000000E+00  0.0000000000E+00
                       0.0000000000E+00  0.0000000000E+00  0.0000000000E+00
                       0.0000000000E+00  0.0000000000E+00  0.0000000000E+00
                       0.0000000000E+00  0.0000000000E+00  0.0000000000E+00
                       0.0000000000E+00  0.0000000000E+00  0.0000000000E+00
                       0.0000000000E+00  0.0000000000E+00  0.0000000000E+00
                       0.0000000000E+00  0.0000000000E+00  0.0000000000E+00
                       0.0000000000E+00  0.0000000000E+00  0.0000000000E+00
                       0.0000000000E+00  0.0000000000E+00  0.0000000000E+00
                       0.0000000000E+00  0.0000000000E+00  0.0000000000E+00
                       0.0000000000E+00  0.0000000000E+00  0.0000000000E+00
                       0.0000000000E+00  0.0000000000E+00  0.0000000000E+00
                       0.0000000000E+00  0.0000000000E+00  0.0000000000E+00
                       0.0000000000E+00  0.0000000000E+00  0.0000000000E+00
                       0.0000000000E+00  0.0000000000E+00  0.0000000000E+00
                       0.0000000000E+00  0.0000000000E+00  0.0000000000E+00
                       0.0000000000E+00  0.0000000000E+00  0.0000000000E+00
                       0.0000000000E+00  0.0000000000E+00  0.0000000000E+00
                       0.0000000000E+00  0.0000000000E+00  0.0000000000E+00
                       0.0000000000E+00  0.0000000000E+00  0.0000000000E+00
                       0.0000000000E+00  0.0000000000E+00  0.0000000000E+00
                       0.0000000000E+00  0.0000000000E+00  0.0000000000E+00
                       0.0000000000E+00  0.0000000000E+00  0.0000000000E+00
                       0.0000000000E+00  0.0000000000E+00  0.0000000000E+00
                       0.0000000000E+00  0.0000000000E+00  0.0000000000E+00
           symrel      1  0  0   0  1  0   0  0  1      -1  0  0   0 -1  0   0  0 -1
                      -1  0  0   0 -1  0   0  0  1       1  0  0   0  1  0   0  0 -1
            tnons      0.0000000  0.0000000  0.0000000    -0.0000000  0.0000000  0.3333333
                      -0.0000000  0.0000000  0.0000000     0.0000000  0.0000000  0.3333333
           toldff      1.00000000E-04
           tolmxf      1.00000000E-03
            typat      1  2  2  2  2  2  3  3  3  3  3  3  3  3  3  3  3  3  4  4
                       4  4  4  4  4  4  4  4  4  4  5  5  5  5  5  5  5  5  5  5
                       5  5  6  6  6  6  6  6  6  6  6  6  6  6
            upawu      2.57245278E-01  0.00000000E+00  0.00000000E+00  0.00000000E+00  0.00000000E+00  0.00000000E+00 Hartree
          usepawu           1
           useylm           1
         wfoptalg         114
           xangst      4.0024254675E+00  0.0000000000E+00  1.5999649383E+00
                       4.0024254675E+00  0.0000000000E+00  4.7998948145E+00
                       4.0024254675E+00  0.0000000000E+00  7.9998246902E+00
                      -4.4435849084E-16  4.0024254675E+00  4.7998952112E-10
                      -4.4435849084E-16  4.0024254675E+00  3.1999298762E+00
                      -4.4435849084E-16  4.0024254675E+00  6.3998597523E+00
                       1.0101490297E+00  6.5876004020E+00  1.5999649383E+00
                       1.0101490297E+00  6.5876004020E+00  4.7998948145E+00
                       1.0101490297E+00  6.5876004020E+00  7.9998246902E+00
                       6.9947019053E+00  1.4172505330E+00  1.5999649383E+00
                       6.9947019053E+00  1.4172505330E+00  4.7998948145E+00
                       6.9947019053E+00  1.4172505330E+00  7.9998246902E+00
                       1.4172505330E+00  1.0101490297E+00  4.7998952112E-10
                       1.4172505330E+00  1.0101490297E+00  3.1999298762E+00
                       1.4172505330E+00  1.0101490297E+00  6.3998597523E+00
                       6.5876004020E+00  6.9947019053E+00  4.7998952112E-10
                       6.5876004020E+00  6.9947019053E+00  3.1999298762E+00
                       6.5876004020E+00  6.9947019053E+00  6.3998597523E+00
                       2.8273408069E+00  5.4776019036E+00  4.7998952112E-10
                       2.8273408069E+00  5.4776019036E+00  3.1999298762E+00
                       2.8273408069E+00  5.4776019036E+00  6.3998597523E+00
                       5.1775101281E+00  2.5272490314E+00  4.7998952112E-10
                       5.1775101281E+00  2.5272490314E+00  3.1999298762E+00
                       5.1775101281E+00  2.5272490314E+00  6.3998597523E+00
                       2.5272490314E+00  2.8273408069E+00  1.5999649383E+00
                       2.5272490314E+00  2.8273408069E+00  4.7998948145E+00
                       2.5272490314E+00  2.8273408069E+00  7.9998246902E+00
                       5.4776019036E+00  5.1775101281E+00  1.5999649383E+00
                       5.4776019036E+00  5.1775101281E+00  4.7998948145E+00
                       5.4776019036E+00  5.1775101281E+00  7.9998246902E+00
                       4.6790691932E+00  5.8356693722E+00  4.7998952112E-10
                       4.6790691932E+00  5.8356693722E+00  3.1999298762E+00
                       4.6790691932E+00  5.8356693722E+00  6.3998597523E+00
                       3.3257817418E+00  2.1691815628E+00  4.7998952112E-10
                       3.3257817418E+00  2.1691815628E+00  3.1999298762E+00
                       3.3257817418E+00  2.1691815628E+00  6.3998597523E+00
                       2.1691815628E+00  4.6790691932E+00  1.5999649383E+00
                       2.1691815628E+00  4.6790691932E+00  4.7998948145E+00
                       2.1691815628E+00  4.6790691932E+00  7.9998246902E+00
                       5.8356693722E+00  3.3257817418E+00  1.5999649383E+00
                       5.8356693722E+00  3.3257817418E+00  4.7998948145E+00
                       5.8356693722E+00  3.3257817418E+00  7.9998246902E+00
                       2.0496947938E+00  7.1461588881E+00  4.7998952112E-10
                       2.0496947938E+00  7.1461588881E+00  3.1999298762E+00
                       2.0496947938E+00  7.1461588881E+00  6.3998597523E+00
                       5.9551561411E+00  8.5869204688E-01  4.7998952112E-10
                       5.9551561411E+00  8.5869204688E-01  3.1999298762E+00
                       5.9551561411E+00  8.5869204688E-01  6.3998597523E+00
                       8.5869204688E-01  2.0496947938E+00  1.5999649383E+00
                       8.5869204688E-01  2.0496947938E+00  4.7998948145E+00
                       8.5869204688E-01  2.0496947938E+00  7.9998246902E+00
                       7.1461588881E+00  5.9551561411E+00  1.5999649383E+00
                       7.1461588881E+00  5.9551561411E+00  4.7998948145E+00
                       7.1461588881E+00  5.9551561411E+00  7.9998246902E+00
            xcart      7.5634880008E+00  0.0000000000E+00  3.0234955557E+00
                       7.5634880008E+00  0.0000000000E+00  9.0704866661E+00
                       7.5634880008E+00  0.0000000000E+00  1.5117477776E+01
                      -8.3971585250E-16  7.5634880008E+00  9.0704874156E-10
                      -8.3971585250E-16  7.5634880008E+00  6.0469911104E+00
                      -8.3971585250E-16  7.5634880008E+00  1.2093982221E+01
                       1.9089050196E+00  1.2448760633E+01  3.0234955557E+00
                       1.9089050196E+00  1.2448760633E+01  9.0704866661E+00
                       1.9089050196E+00  1.2448760633E+01  1.5117477776E+01
                       1.3218070982E+01  2.6782153690E+00  3.0234955557E+00
                       1.3218070982E+01  2.6782153690E+00  9.0704866661E+00
                       1.3218070982E+01  2.6782153690E+00  1.5117477776E+01
                       2.6782153690E+00  1.9089050196E+00  9.0704874156E-10
                       2.6782153690E+00  1.9089050196E+00  6.0469911104E+00
                       2.6782153690E+00  1.9089050196E+00  1.2093982221E+01
                       1.2448760633E+01  1.3218070982E+01  9.0704874156E-10
                       1.2448760633E+01  1.3218070982E+01  6.0469911104E+00
                       1.2448760633E+01  1.3218070982E+01  1.2093982221E+01
                       5.3428998093E+00  1.0351167463E+01  9.0704874156E-10
                       5.3428998093E+00  1.0351167463E+01  6.0469911104E+00
                       5.3428998093E+00  1.0351167463E+01  1.2093982221E+01
                       9.7840761924E+00  4.7758085390E+00  9.0704874156E-10
                       9.7840761924E+00  4.7758085390E+00  6.0469911104E+00
                       9.7840761924E+00  4.7758085390E+00  1.2093982221E+01
                       4.7758085390E+00  5.3428998093E+00  3.0234955557E+00
                       4.7758085390E+00  5.3428998093E+00  9.0704866661E+00
                       4.7758085390E+00  5.3428998093E+00  1.5117477776E+01
                       1.0351167463E+01  9.7840761924E+00  3.0234955557E+00
                       1.0351167463E+01  9.7840761924E+00  9.0704866661E+00
                       1.0351167463E+01  9.7840761924E+00  1.5117477776E+01
                       8.8421593320E+00  1.1027816916E+01  9.0704874156E-10
                       8.8421593320E+00  1.1027816916E+01  6.0469911104E+00
                       8.8421593320E+00  1.1027816916E+01  1.2093982221E+01
                       6.2848166697E+00  4.0991590861E+00  9.0704874156E-10
                       6.2848166697E+00  4.0991590861E+00  6.0469911104E+00
                       6.2848166697E+00  4.0991590861E+00  1.2093982221E+01
                       4.0991590861E+00  8.8421593320E+00  3.0234955557E+00
                       4.0991590861E+00  8.8421593320E+00  9.0704866661E+00
                       4.0991590861E+00  8.8421593320E+00  1.5117477776E+01
                       1.1027816916E+01  6.2848166697E+00  3.0234955557E+00
                       1.1027816916E+01  6.2848166697E+00  9.0704866661E+00
                       1.1027816916E+01  6.2848166697E+00  1.5117477776E+01
                       3.8733618164E+00  1.3504283201E+01  9.0704874156E-10
                       3.8733618164E+00  1.3504283201E+01  6.0469911104E+00
                       3.8733618164E+00  1.3504283201E+01  1.2093982221E+01
                       1.1253614185E+01  1.6226928011E+00  9.0704874156E-10
                       1.1253614185E+01  1.6226928011E+00  6.0469911104E+00
                       1.1253614185E+01  1.6226928011E+00  1.2093982221E+01
                       1.6226928011E+00  3.8733618164E+00  3.0234955557E+00
                       1.6226928011E+00  3.8733618164E+00  9.0704866661E+00
                       1.6226928011E+00  3.8733618164E+00  1.5117477776E+01
                       1.3504283201E+01  1.1253614185E+01  3.0234955557E+00
                       1.3504283201E+01  1.1253614185E+01  9.0704866661E+00
                       1.3504283201E+01  1.1253614185E+01  1.5117477776E+01
             xred      5.0000000000E-01  0.0000000000E+00  1.6666666670E-01
                       5.0000000000E-01  0.0000000000E+00  5.0000000005E-01
                       5.0000000000E-01  0.0000000000E+00  8.3333333335E-01
                      -5.5511151231E-17  5.0000000000E-01  5.0000004137E-11
                      -5.5511151231E-17  5.0000000000E-01  3.3333333335E-01
                      -5.5511151231E-17  5.0000000000E-01  6.6666666670E-01
                       1.2619211000E-01  8.2295104000E-01  1.6666666670E-01
                       1.2619211000E-01  8.2295104000E-01  5.0000000005E-01
                       1.2619211000E-01  8.2295104000E-01  8.3333333335E-01
                       8.7380789000E-01  1.7704896000E-01  1.6666666670E-01
                       8.7380789000E-01  1.7704896000E-01  5.0000000005E-01
                       8.7380789000E-01  1.7704896000E-01  8.3333333335E-01
                       1.7704896000E-01  1.2619211000E-01  5.0000004137E-11
                       1.7704896000E-01  1.2619211000E-01  3.3333333335E-01
                       1.7704896000E-01  1.2619211000E-01  6.6666666670E-01
                       8.2295104000E-01  8.7380789000E-01  5.0000004137E-11
                       8.2295104000E-01  8.7380789000E-01  3.3333333335E-01
                       8.2295104000E-01  8.7380789000E-01  6.6666666670E-01
                       3.5320343000E-01  6.8428531000E-01  5.0000004137E-11
                       3.5320343000E-01  6.8428531000E-01  3.3333333335E-01
                       3.5320343000E-01  6.8428531000E-01  6.6666666670E-01
                       6.4679657000E-01  3.1571469000E-01  5.0000004137E-11
                       6.4679657000E-01  3.1571469000E-01  3.3333333335E-01
                       6.4679657000E-01  3.1571469000E-01  6.6666666670E-01
                       3.1571469000E-01  3.5320343000E-01  1.6666666670E-01
                       3.1571469000E-01  3.5320343000E-01  5.0000000005E-01
                       3.1571469000E-01  3.5320343000E-01  8.3333333335E-01
                       6.8428531000E-01  6.4679657000E-01  1.6666666670E-01
                       6.8428531000E-01  6.4679657000E-01  5.0000000005E-01
                       6.8428531000E-01  6.4679657000E-01  8.3333333335E-01
                       5.8452921000E-01  7.2901662000E-01  5.0000004137E-11
                       5.8452921000E-01  7.2901662000E-01  3.3333333335E-01
                       5.8452921000E-01  7.2901662000E-01  6.6666666670E-01
                       4.1547079000E-01  2.7098338000E-01  5.0000004137E-11
                       4.1547079000E-01  2.7098338000E-01  3.3333333335E-01
                       4.1547079000E-01  2.7098338000E-01  6.6666666670E-01
                       2.7098338000E-01  5.8452921000E-01  1.6666666670E-01
                       2.7098338000E-01  5.8452921000E-01  5.0000000005E-01
                       2.7098338000E-01  5.8452921000E-01  8.3333333335E-01
                       7.2901662000E-01  4.1547079000E-01  1.6666666670E-01
                       7.2901662000E-01  4.1547079000E-01  5.0000000005E-01
                       7.2901662000E-01  4.1547079000E-01  8.3333333335E-01
                       2.5605658500E-01  8.9272854000E-01  5.0000004137E-11
                       2.5605658500E-01  8.9272854000E-01  3.3333333335E-01
                       2.5605658500E-01  8.9272854000E-01  6.6666666670E-01
                       7.4394341500E-01  1.0727146000E-01  5.0000004137E-11
                       7.4394341500E-01  1.0727146000E-01  3.3333333335E-01
                       7.4394341500E-01  1.0727146000E-01  6.6666666670E-01
                       1.0727146000E-01  2.5605658500E-01  1.6666666670E-01
                       1.0727146000E-01  2.5605658500E-01  5.0000000005E-01
                       1.0727146000E-01  2.5605658500E-01  8.3333333335E-01
                       8.9272854000E-01  7.4394341500E-01  1.6666666670E-01
                       8.9272854000E-01  7.4394341500E-01  5.0000000005E-01
                       8.9272854000E-01  7.4394341500E-01  8.3333333335E-01
            znucl       63.00000   38.00000    3.00000   13.00000    7.00000    8.00000

================================================================================

 chkinp: Checking input parameters for consistency.

================================================================================
== DATASET  1 ==================================================================
-   mpi_nproc: 120, omp_nthreads: -1 (-1 if OMP is not activated)


--- !DatasetInfo
iteration_state: {dtset: 1, }
dimensions: {natom: 54, nkpt: 1, mband: 180, nsppol: 2, nspinor: 1, nspden: 2, mpw: 76, }
cutoff_energies: {ecut:  10.0, pawecutdg:  20.0, }
electrons: {nelect:   2.71000000E+02, charge:   0.00000000E+00, occopt:   2.00000000E+00, tsmear:   1.00000000E-02, }
meta: {optdriver: 0, ionmov: 2, optcell: 2, iscf: 17, paral_kgb: 1, }
...

 Real(R)+Recip(G) space primitive vectors, cartesian coordinates (Bohr,Bohr^-1):
 R(1)= 15.1269760  0.0000000  0.0000000  G(1)=  0.0661071  0.0000000  0.0000000
 R(2)=  0.0000000 15.1269760  0.0000000  G(2)=  0.0000000  0.0661071  0.0000000
 R(3)=  0.0000000  0.0000000 18.1409733  G(3)=  0.0000000  0.0000000  0.0551238
 Unit cell volume ucvol=  4.1511155E+03 bohr^3
 Angles (23,13,12)=  9.00000000E+01  9.00000000E+01  9.00000000E+01 degrees

 Coarse grid specifications (used for wave-functions):

 getcut: wavevector=  0.0000  0.0000  0.0000  ngfft=  50  54  60
         ecut(hartree)=     13.225   => boxcut(ratio)=   2.01909

 Fine grid specifications (used for densities):

 getcut: wavevector=  0.0000  0.0000  0.0000  ngfft=  72  72  90
         ecut(hartree)=     26.450   => boxcut(ratio)=   2.05590

--- Pseudopotential description ------------------------------------------------
- pspini: atom type   1  psp file is /gpfs/home/acad/ucl-modl/jbouq/paw-sr-11_pbe_standard_xml/Eu.xml
- pspatm: opening atomic psp file    /gpfs/home/acad/ucl-modl/jbouq/paw-sr-11_pbe_standard_xml/Eu.xml
- pspatm : Reading pseudopotential header in XML form from /gpfs/home/acad/ucl-modl/jbouq/paw-sr-11_pbe_standard_xml/Eu.xml
 Pseudopotential format is: paw10
 basis_size (lnmax)=  8 (lmn_size= 32), orbitals=   0   0   1   1   2   2   3   3
 Spheres core radius: rc_sph= 2.52170005
 1 radial meshes are used:
  - mesh 1: r(i)=AA*[exp(BB*(i-1))-1], size=1500 , AA= 0.14034E-03 BB= 0.88415E-02
 Shapefunction is SIN type: shapef(r)=[sin(pi*r/rshp)/(pi*r/rshp)]**2
 Radius for shape functions =  2.30830346
 mmax= 1500
 Radial grid used for partial waves is grid 1
 Radial grid used for projectors is grid 1
 Radial grid used for (t)core density is grid 1
 Radial grid used for Vloc is grid 1
 Radial grid used for pseudo valence density is grid 1
 Mesh size for Vloc has been set to 1343 to avoid numerical noise.
 Compensation charge density is not taken into account in XC energy/potential
 pspatm: atomic psp has been read  and splines computed

- pspini: atom type   2  psp file is /gpfs/home/acad/ucl-modl/jbouq/paw-sr-11_pbe_standard_xml/Sr.xml
- pspatm: opening atomic psp file    /gpfs/home/acad/ucl-modl/jbouq/paw-sr-11_pbe_standard_xml/Sr.xml
- pspatm : Reading pseudopotential header in XML form from /gpfs/home/acad/ucl-modl/jbouq/paw-sr-11_pbe_standard_xml/Sr.xml
 Pseudopotential format is: paw10
 basis_size (lnmax)=  6 (lmn_size= 18), orbitals=   0   0   1   1   2   2
 Spheres core radius: rc_sph= 2.20669967
 1 radial meshes are used:
  - mesh 1: r(i)=AA*[exp(BB*(i-1))-1], size=1500 , AA= 0.22443E-03 BB= 0.85283E-02
 Shapefunction is SIN type: shapef(r)=[sin(pi*r/rshp)/(pi*r/rshp)]**2
 Radius for shape functions =  1.81361893
 mmax= 1500
 Radial grid used for partial waves is grid 1
 Radial grid used for projectors is grid 1
 Radial grid used for (t)core density is grid 1
 Radial grid used for Vloc is grid 1
 Radial grid used for pseudo valence density is grid 1
 Mesh size for Vloc has been set to 1337 to avoid numerical noise.
 Compensation charge density is not taken into account in XC energy/potential
 pspatm: atomic psp has been read  and splines computed

- pspini: atom type   3  psp file is /gpfs/home/acad/ucl-modl/jbouq/paw-sr-11_pbe_standard_xml/Li.xml
- pspatm: opening atomic psp file    /gpfs/home/acad/ucl-modl/jbouq/paw-sr-11_pbe_standard_xml/Li.xml
- pspatm : Reading pseudopotential header in XML form from /gpfs/home/acad/ucl-modl/jbouq/paw-sr-11_pbe_standard_xml/Li.xml
 Pseudopotential format is: paw10
 basis_size (lnmax)=  5 (lmn_size=  9), orbitals=   0   0   0   1   1
 Spheres core radius: rc_sph= 1.60264751
 1 radial meshes are used:
  - mesh 1: r(i)=AA*[exp(BB*(i-1))-1], size=2001 , AA= 0.17851E-02 BB= 0.53552E-02
 Shapefunction is BESSEL type: shapef(r,l)=aa(1,l)*jl(q(1,l)*r)+aa(2,l)*jl(q(2,l)*r)
 Radius for shape functions =  1.30023672
 mmax= 2001
 Radial grid used for partial waves is grid 1
 Radial grid used for projectors is grid 1
 Radial grid used for (t)core density is grid 1
 Radial grid used for Vloc is grid 1
 Radial grid used for pseudo valence density is grid 1
 Mesh size for Vloc has been set to 1742 to avoid numerical noise.
 Compensation charge density is not taken into account in XC energy/potential
 pspatm: atomic psp has been read  and splines computed

- pspini: atom type   4  psp file is /gpfs/home/acad/ucl-modl/jbouq/paw-sr-11_pbe_standard_xml/Al.xml
- pspatm: opening atomic psp file    /gpfs/home/acad/ucl-modl/jbouq/paw-sr-11_pbe_standard_xml/Al.xml
- pspatm : Reading pseudopotential header in XML form from /gpfs/home/acad/ucl-modl/jbouq/paw-sr-11_pbe_standard_xml/Al.xml
 Pseudopotential format is: paw10
 basis_size (lnmax)=  4 (lmn_size=  8), orbitals=   0   0   1   1
 Spheres core radius: rc_sph= 1.90363307
 1 radial meshes are used:
  - mesh 1: r(i)=AA*[exp(BB*(i-1))-1], size=2001 , AA= 0.46377E-03 BB= 0.60291E-02
 Shapefunction is SIN type: shapef(r)=[sin(pi*r/rshp)/(pi*r/rshp)]**2
 Radius for shape functions =  1.60786206
 mmax= 2001
 Radial grid used for partial waves is grid 1
 Radial grid used for projectors is grid 1
 Radial grid used for (t)core density is grid 1
 Radial grid used for Vloc is grid 1
 Radial grid used for pseudo valence density is grid 1
 Mesh size for Vloc has been set to 1771 to avoid numerical noise.
 Compensation charge density is not taken into account in XC energy/potential
 pspatm: atomic psp has been read  and splines computed

- pspini: atom type   5  psp file is /gpfs/home/acad/ucl-modl/jbouq/paw-sr-11_pbe_standard_xml/N.xml
- pspatm: opening atomic psp file    /gpfs/home/acad/ucl-modl/jbouq/paw-sr-11_pbe_standard_xml/N.xml
- pspatm : Reading pseudopotential header in XML form from /gpfs/home/acad/ucl-modl/jbouq/paw-sr-11_pbe_standard_xml/N.xml
 Pseudopotential format is: paw10
 basis_size (lnmax)=  4 (lmn_size=  8), orbitals=   0   0   1   1
 Spheres core radius: rc_sph= 1.20000000
 1 radial meshes are used:
  - mesh 1: r(i)=AA*[exp(BB*(i-1))-1], size= 787 , AA= 0.19344E-02 BB= 0.13541E-01
 Shapefunction is SIN type: shapef(r)=[sin(pi*r/rshp)/(pi*r/rshp)]**2
 Radius for shape functions =  1.00599851
 mmax=  787
 Radial grid used for partial waves is grid 1
 Radial grid used for projectors is grid 1
 Radial grid used for (t)core density is grid 1
 Radial grid used for Vloc is grid 1
 Radial grid used for pseudo valence density is grid 1
 Mesh size for Vloc has been set to  683 to avoid numerical noise.
 Compensation charge density is not taken into account in XC energy/potential
 pspatm: atomic psp has been read  and splines computed

- pspini: atom type   6  psp file is /gpfs/home/acad/ucl-modl/jbouq/paw-sr-11_pbe_standard_xml/O.xml
- pspatm: opening atomic psp file    /gpfs/home/acad/ucl-modl/jbouq/paw-sr-11_pbe_standard_xml/O.xml
- pspatm : Reading pseudopotential header in XML form from /gpfs/home/acad/ucl-modl/jbouq/paw-sr-11_pbe_standard_xml/O.xml
 Pseudopotential format is: paw10
 basis_size (lnmax)=  4 (lmn_size=  8), orbitals=   0   0   1   1
 Spheres core radius: rc_sph= 1.41465230
 1 radial meshes are used:
  - mesh 1: r(i)=AA*[exp(BB*(i-1))-1], size=2001 , AA= 0.72565E-03 BB= 0.58052E-02
 Shapefunction is SIN type: shapef(r)=[sin(pi*r/rshp)/(pi*r/rshp)]**2
 Radius for shape functions =  1.20231231
 mmax= 2001
 Radial grid used for partial waves is grid 1
 Radial grid used for projectors is grid 1
 Radial grid used for (t)core density is grid 1
 Radial grid used for Vloc is grid 1
 Radial grid used for pseudo valence density is grid 1
 Mesh size for Vloc has been set to 1762 to avoid numerical noise.
 Compensation charge density is not taken into account in XC energy/potential
 pspatm: atomic psp has been read  and splines computed

   8.49875662E+04                                ecore*ucvol(ha*bohr**3)
--------------------------------------------------------------------------------

_setup2: Arith. and geom. avg. npw (full set) are     151.000     151.000


 ******************************************
 DFT+U Method used: FLL
 ******************************************

================================================================================

=== [ionmov= 2] Broyden-Fletcher-Goldfard-Shanno method (forces)            
================================================================================

--- Iteration: (   1/1000) Internal Cycle: (1/1)
--------------------------------------------------------------------------------

---SELF-CONSISTENT-FIELD CONVERGENCE--------------------------------------------

--- !BeginCycle
iteration_state: {dtset: 1, itime: 1, icycle: 1, }
solver: {iscf: 17, nstep: 300, nline: 4, wfoptalg: 114, }
tolerances: {toldff: 1.00E-04, }
...

     iter   Etot(hartree)      deltaE(h)  residm     nres2    diffor    maxfor
 ETOT  1  -695.27426585565    -6.953E+02 3.448E-04 1.052E+03 2.105E+00 2.105E+00
 ETOT  2  -722.54197854140    -2.727E+01 2.901E-04 3.879E+03 2.479E+00 3.745E-01
 ETOT  3  -679.60236947958     4.294E+01 6.151E-02 1.465E+02 3.890E-01 4.807E-02
 ETOT  4  -681.05124767171    -1.449E+00 2.158E-03 5.534E+02 9.088E-02 7.639E-02
 ETOT  5  -679.93979446287     1.111E+00 1.626E-03 5.272E+01 7.362E-02 1.648E-02
 ETOT  6  -680.77681273245    -8.370E-01 7.124E-05 3.704E+02 5.994E-02 5.718E-02
 ETOT  7  -679.86670257382     9.101E-01 5.997E-05 3.714E+01 5.525E-02 1.493E-02
 ETOT  8  -679.87120465452    -4.502E-03 3.757E-05 2.223E+01 1.177E-02 8.211E-03
 ETOT  9  -679.90369096597    -3.249E-02 2.489E-04 8.351E+00 3.822E-03 8.242E-03
 ETOT 10  -680.00131201349    -9.762E-02 9.236E-07 6.142E+01 1.974E-02 2.570E-02
 ETOT 11  -679.89074808533     1.106E-01 4.541E-05 6.628E+00 1.768E-02 8.028E-03
 ETOT 12  -679.81219142128     7.856E-02 4.636E-03 7.046E+00 9.082E-03 9.961E-03
 ETOT 13  -682.28749874444    -2.475E+00 6.470E-03 5.379E+02 8.496E-02 7.966E-02
 ETOT 14  -679.87910424151     2.408E+00 6.666E-04 2.186E+01 7.876E-02 7.720E-03
 ETOT 15  -679.88128164055    -2.177E-03 3.732E-06 2.164E+01 7.724E-03 8.281E-03
 ETOT 16  -679.88677425134    -5.493E-03 3.375E-07 2.053E+01 4.555E-04 8.171E-03
 ETOT 17  -679.90406807989    -1.729E-02 2.779E-07 1.814E+01 8.382E-04 8.351E-03
 ETOT 18  -679.91712807849    -1.306E-02 2.552E-07 1.731E+01 8.204E-04 7.530E-03
 ETOT 19  -680.00058662573    -8.346E-02 4.516E-04 3.259E+00 6.575E-03 7.628E-03
 ETOT 20  -679.95458625123     4.600E-02 5.945E-03 1.507E+00 6.326E-03 8.544E-03
 ETOT 21  -679.98583007804    -3.124E-02 9.528E-05 1.002E+00 7.367E-03 8.214E-03
 ETOT 22  -680.03882405192    -5.299E-02 2.771E-05 8.318E+00 5.433E-03 1.178E-02
 ETOT 23  -680.03725947666     1.565E-03 1.749E-06 5.923E+00 9.496E-04 1.109E-02
 ETOT 24  -680.03691931652     3.402E-04 4.037E-06 2.429E+00 2.556E-03 9.486E-03
 ETOT 25  -680.03029222609     6.627E-03 5.487E-04 1.011E+00 2.641E-03 7.141E-03
 ETOT 26  -680.03271375877    -2.422E-03 7.374E-04 4.630E-01 4.107E-03 6.660E-03
 ETOT 27  -680.03944354343    -6.730E-03 1.209E-06 1.627E-02 3.419E-03 6.754E-03
 ETOT 28  -680.03947810577    -3.456E-05 8.793E-09 4.673E-03 2.303E-04 6.668E-03
 ETOT 29  -680.03949672176    -1.862E-05 2.577E-07 1.106E-03 1.240E-04 6.643E-03
 ETOT 30  -680.03950313700    -6.415E-06 3.244E-08 1.104E-04 9.376E-05 6.617E-03
 ETOT 31  -680.03950914983    -6.013E-06 1.440E-09 4.667E-05 4.570E-05 6.614E-03

 At SCF step   31, forces are converged : 
  for the second time, max diff in force=  4.570E-05 < toldff=  1.000E-04

 Cartesian components of stress tensor (hartree/bohr^3)
  sigma(1 1)=  5.20740243E-04  sigma(3 2)=  0.00000000E+00
  sigma(2 2)=  5.22149508E-04  sigma(3 1)=  0.00000000E+00
  sigma(3 3)=  6.56399148E-04  sigma(2 1)= -4.14257774E-07


--- !ResultsGS
iteration_state: {dtset: 1, itime: 1, icycle: 1, }
comment   : Summary of ground state results
lattice_vectors:
- [ 15.1269760,   0.0000000,   0.0000000, ]
- [  0.0000000,  15.1269760,   0.0000000, ]
- [  0.0000000,   0.0000000,  18.1409733, ]
lattice_lengths: [  15.12698,   15.12698,   18.14097, ]
lattice_angles: [ 90.000,  90.000,  90.000, ] # degrees, (23, 13, 12)
lattice_volume:   4.1511155E+03
convergence: {deltae: -6.013E-06, res2:  4.667E-05, residm:  1.440E-09, diffor:  4.570E-05, }
etotal    :  -6.80039509E+02
entropy   :   0.00000000E+00
fermie    :   2.30330019E-01
cartesian_stress_tensor: # hartree/bohr^3
- [  5.20740243E-04,  -4.14257774E-07,   0.00000000E+00, ]
- [ -4.14257774E-07,   5.22149508E-04,   0.00000000E+00, ]
- [  0.00000000E+00,   0.00000000E+00,   6.56399148E-04, ]
pressure_GPa:  -1.6665E+01
xred      :
- [  5.0000E-01,   0.0000E+00,   1.6667E-01, Eu]
- [  5.0000E-01,   0.0000E+00,   5.0000E-01, Sr]
- [  5.0000E-01,   0.0000E+00,   8.3333E-01, Sr]
- [ -5.5511E-17,   5.0000E-01,   5.0000E-11, Sr]
- [ -5.5511E-17,   5.0000E-01,   3.3333E-01, Sr]
- [ -5.5511E-17,   5.0000E-01,   6.6667E-01, Sr]
- [  1.2619E-01,   8.2295E-01,   1.6667E-01, Li]
- [  1.2619E-01,   8.2295E-01,   5.0000E-01, Li]
- [  1.2619E-01,   8.2295E-01,   8.3333E-01, Li]
- [  8.7381E-01,   1.7705E-01,   1.6667E-01, Li]
- [  8.7381E-01,   1.7705E-01,   5.0000E-01, Li]
- [  8.7381E-01,   1.7705E-01,   8.3333E-01, Li]
- [  1.7705E-01,   1.2619E-01,   5.0000E-11, Li]
- [  1.7705E-01,   1.2619E-01,   3.3333E-01, Li]
- [  1.7705E-01,   1.2619E-01,   6.6667E-01, Li]
- [  8.2295E-01,   8.7381E-01,   5.0000E-11, Li]
- [  8.2295E-01,   8.7381E-01,   3.3333E-01, Li]
- [  8.2295E-01,   8.7381E-01,   6.6667E-01, Li]
- [  3.5320E-01,   6.8429E-01,   5.0000E-11, Al]
- [  3.5320E-01,   6.8429E-01,   3.3333E-01, Al]
- [  3.5320E-01,   6.8429E-01,   6.6667E-01, Al]
- [  6.4680E-01,   3.1571E-01,   5.0000E-11, Al]
- [  6.4680E-01,   3.1571E-01,   3.3333E-01, Al]
- [  6.4680E-01,   3.1571E-01,   6.6667E-01, Al]
- [  3.1571E-01,   3.5320E-01,   1.6667E-01, Al]
- [  3.1571E-01,   3.5320E-01,   5.0000E-01, Al]
- [  3.1571E-01,   3.5320E-01,   8.3333E-01, Al]
- [  6.8429E-01,   6.4680E-01,   1.6667E-01, Al]
- [  6.8429E-01,   6.4680E-01,   5.0000E-01, Al]
- [  6.8429E-01,   6.4680E-01,   8.3333E-01, Al]
- [  5.8453E-01,   7.2902E-01,   5.0000E-11,  N]
- [  5.8453E-01,   7.2902E-01,   3.3333E-01,  N]
- [  5.8453E-01,   7.2902E-01,   6.6667E-01,  N]
- [  4.1547E-01,   2.7098E-01,   5.0000E-11,  N]
- [  4.1547E-01,   2.7098E-01,   3.3333E-01,  N]
- [  4.1547E-01,   2.7098E-01,   6.6667E-01,  N]
- [  2.7098E-01,   5.8453E-01,   1.6667E-01,  N]
- [  2.7098E-01,   5.8453E-01,   5.0000E-01,  N]
- [  2.7098E-01,   5.8453E-01,   8.3333E-01,  N]
- [  7.2902E-01,   4.1547E-01,   1.6667E-01,  N]
- [  7.2902E-01,   4.1547E-01,   5.0000E-01,  N]
- [  7.2902E-01,   4.1547E-01,   8.3333E-01,  N]
- [  2.5606E-01,   8.9273E-01,   5.0000E-11,  O]
- [  2.5606E-01,   8.9273E-01,   3.3333E-01,  O]
- [  2.5606E-01,   8.9273E-01,   6.6667E-01,  O]
- [  7.4394E-01,   1.0727E-01,   5.0000E-11,  O]
- [  7.4394E-01,   1.0727E-01,   3.3333E-01,  O]
- [  7.4394E-01,   1.0727E-01,   6.6667E-01,  O]
- [  1.0727E-01,   2.5606E-01,   1.6667E-01,  O]
- [  1.0727E-01,   2.5606E-01,   5.0000E-01,  O]
- [  1.0727E-01,   2.5606E-01,   8.3333E-01,  O]
- [  8.9273E-01,   7.4394E-01,   1.6667E-01,  O]
- [  8.9273E-01,   7.4394E-01,   5.0000E-01,  O]
- [  8.9273E-01,   7.4394E-01,   8.3333E-01,  O]
cartesian_forces: # hartree/bohr
- [ -8.03112720E-20,  -1.04404654E-19,  -4.01556360E-21, ]
- [ -8.03112720E-20,  -1.04404654E-19,  -5.36800022E-05, ]
- [ -8.03112720E-20,  -1.04404654E-19,   5.36800022E-05, ]
- [ -8.03112720E-20,  -1.04404654E-19,   9.40434864E-05, ]
- [ -8.03112720E-20,  -1.04404654E-19,  -9.40434864E-05, ]
- [ -8.03112720E-20,  -1.04404654E-19,  -4.01556360E-21, ]
- [ -7.24243194E-04,   1.25142797E-03,  -4.01556360E-21, ]
- [ -8.15609541E-04,   1.24213720E-03,   6.24913713E-05, ]
- [ -8.15609541E-04,   1.24213720E-03,  -6.24913713E-05, ]
- [  7.24243194E-04,  -1.25142797E-03,  -4.01556360E-21, ]
- [  8.15609541E-04,  -1.24213720E-03,   6.24913713E-05, ]
- [  8.15609541E-04,  -1.24213720E-03,  -6.24913713E-05, ]
- [ -1.11455635E-03,  -7.77980246E-04,   1.61669146E-04, ]
- [ -1.11455635E-03,  -7.77980246E-04,  -1.61669146E-04, ]
- [ -1.24274472E-03,  -7.68025430E-04,  -4.01556360E-21, ]
- [  1.11455635E-03,   7.77980246E-04,   1.61669146E-04, ]
- [  1.11455635E-03,   7.77980246E-04,  -1.61669146E-04, ]
- [  1.24274472E-03,   7.68025430E-04,  -4.01556360E-21, ]
- [ -2.87355775E-04,   1.17245485E-03,   3.83808553E-04, ]
- [ -2.87355775E-04,   1.17245485E-03,  -3.83808553E-04, ]
- [ -3.80954013E-04,   1.18628933E-03,  -4.01556360E-21, ]
- [  2.87355775E-04,  -1.17245485E-03,   3.83808553E-04, ]
- [  2.87355775E-04,  -1.17245485E-03,  -3.83808553E-04, ]
- [  3.80954013E-04,  -1.18628933E-03,  -4.01556360E-21, ]
- [ -1.09592563E-03,  -1.00237225E-03,  -4.01556360E-21, ]
- [ -1.17181571E-03,  -4.81835446E-04,   9.43174878E-05, ]
- [ -1.17181571E-03,  -4.81835446E-04,  -9.43174878E-05, ]
- [  1.09592563E-03,   1.00237225E-03,  -4.01556360E-21, ]
- [  1.17181571E-03,   4.81835446E-04,   9.43174878E-05, ]
- [  1.17181571E-03,   4.81835446E-04,  -9.43174878E-05, ]
- [  2.31303585E-03,   6.09360084E-03,  -3.58605090E-04, ]
- [  2.31303585E-03,   6.09360084E-03,   3.58605090E-04, ]
- [  2.23246002E-03,   6.48456397E-03,  -4.01556360E-21, ]
- [ -2.31303585E-03,  -6.09360084E-03,  -3.58605090E-04, ]
- [ -2.31303585E-03,  -6.09360084E-03,   3.58605090E-04, ]
- [ -2.23246002E-03,  -6.48456397E-03,  -4.01556360E-21, ]
- [ -6.61383666E-03,   2.04441092E-03,  -4.01556360E-21, ]
- [ -6.54624064E-03,   2.26635619E-03,  -4.33276623E-05, ]
- [ -6.54624064E-03,   2.26635619E-03,   4.33276623E-05, ]
- [  6.61383666E-03,  -2.04441092E-03,  -4.01556360E-21, ]
- [  6.54624064E-03,  -2.26635619E-03,  -4.33276623E-05, ]
- [  6.54624064E-03,  -2.26635619E-03,   4.33276623E-05, ]
- [ -2.42905067E-03,  -3.76484217E-03,  -5.59242375E-04, ]
- [ -2.42905067E-03,  -3.76484217E-03,   5.59242375E-04, ]
- [ -1.67299443E-03,  -3.69168443E-03,  -4.01556360E-21, ]
- [  2.42905067E-03,   3.76484217E-03,  -5.59242375E-04, ]
- [  2.42905067E-03,   3.76484217E-03,   5.59242375E-04, ]
- [  1.67299443E-03,   3.69168443E-03,  -4.01556360E-21, ]
- [  3.55015083E-03,  -1.54368807E-03,  -4.01556360E-21, ]
- [  3.60114007E-03,  -1.60592366E-03,   6.11624750E-05, ]
- [  3.60114007E-03,  -1.60592366E-03,  -6.11624750E-05, ]
- [ -3.55015083E-03,   1.54368807E-03,  -4.01556360E-21, ]
- [ -3.60114007E-03,   1.60592366E-03,   6.11624750E-05, ]
- [ -3.60114007E-03,   1.60592366E-03,  -6.11624750E-05, ]
force_length_stats: {min:   1.31781474E-19, max:   6.92759079E-03, mean:   3.04093450E-03, }
...

 Integrated electronic and magnetization densities in atomic spheres:
 ---------------------------------------------------------------------
 Radius=ratsph(iatom), smearing ratsm=  0.0000. Diff(up-dn)=approximate z local magnetic moment.
 Atom    Radius    up_density   dn_density  Total(up+dn)  Diff(up-dn)
    1   2.52170    10.801989     3.919059     14.721048     6.882930
    2   2.20670     3.677335     3.675595      7.352931     0.001740
    3   2.20670     3.677335     3.675595      7.352931     0.001740
    4   2.20670     3.676324     3.676113      7.352437     0.000211
    5   2.20670     3.676324     3.676113      7.352437     0.000211
    6   2.20670     3.676101     3.676170      7.352272    -0.000069
    7   1.60265     1.057202     1.057192      2.114395     0.000010
    8   1.60265     1.057169     1.057280      2.114450    -0.000111
    9   1.60265     1.057169     1.057280      2.114450    -0.000111
   10   1.60265     1.057202     1.057192      2.114395     0.000010
   11   1.60265     1.057169     1.057280      2.114450    -0.000111
   12   1.60265     1.057169     1.057280      2.114450    -0.000111
   13   1.60265     1.057282     1.057160      2.114442     0.000123
   14   1.60265     1.057282     1.057160      2.114442     0.000123
   15   1.60265     1.057237     1.057219      2.114456     0.000018
   16   1.60265     1.057282     1.057160      2.114442     0.000123
   17   1.60265     1.057282     1.057160      2.114442     0.000123
   18   1.60265     1.057237     1.057219      2.114456     0.000018
   19   1.90363     0.460615     0.460402      0.921018     0.000213
   20   1.90363     0.460615     0.460402      0.921018     0.000213
   21   1.90363     0.460606     0.460558      0.921164     0.000048
   22   1.90363     0.460615     0.460402      0.921018     0.000213
   23   1.90363     0.460615     0.460402      0.921018     0.000213
   24   1.90363     0.460606     0.460558      0.921164     0.000048
   25   1.90363     0.460682     0.460315      0.920998     0.000367
   26   1.90363     0.460421     0.460770      0.921191    -0.000349
   27   1.90363     0.460421     0.460770      0.921191    -0.000349
   28   1.90363     0.460682     0.460315      0.920998     0.000367
   29   1.90363     0.460421     0.460770      0.921191    -0.000349
   30   1.90363     0.460421     0.460770      0.921191    -0.000349
   31   1.20000     1.230052     1.234892      2.464943    -0.004840
   32   1.20000     1.230052     1.234892      2.464943    -0.004840
   33   1.20000     1.232380     1.232671      2.465051    -0.000291
   34   1.20000     1.230052     1.234892      2.464943    -0.004840
   35   1.20000     1.230052     1.234892      2.464943    -0.004840
   36   1.20000     1.232380     1.232671      2.465051    -0.000291
   37   1.20000     1.232712     1.232526      2.465237     0.000186
   38   1.20000     1.232347     1.232740      2.465087    -0.000392
   39   1.20000     1.232347     1.232740      2.465087    -0.000392
   40   1.20000     1.232712     1.232526      2.465237     0.000186
   41   1.20000     1.232347     1.232740      2.465087    -0.000392
   42   1.20000     1.232347     1.232740      2.465087    -0.000392
   43   1.41465     2.287707     2.294604      4.582311    -0.006896
   44   1.41465     2.287707     2.294604      4.582311    -0.006896
   45   1.41465     2.291319     2.291706      4.583025    -0.000388
   46   1.41465     2.287707     2.294604      4.582311    -0.006896
   47   1.41465     2.287707     2.294604      4.582311    -0.006896
   48   1.41465     2.291319     2.291706      4.583025    -0.000388
   49   1.41465     2.291548     2.291224      4.582772     0.000324
   50   1.41465     2.291441     2.291598      4.583039    -0.000158
   51   1.41465     2.291441     2.291598      4.583039    -0.000158
   52   1.41465     2.291548     2.291224      4.582772     0.000324
   53   1.41465     2.291441     2.291598      4.583039    -0.000158
   54   1.41465     2.291441     2.291598      4.583039    -0.000158
 ---------------------------------------------------------------------
  Sum:             89.660919    82.823253    172.484172     6.837666
 Total magnetization (from the atomic spheres):             6.837666
 Total magnetization (exact up - dn):                       7.000026

 PAW TEST:
 ==== Compensation charge inside spheres ============
 The following values must be close to each other ...
 Compensation charge over spherical meshes =     20.970199967661394
 Compensation charge over fine fft grid    =     20.971089137378815

 ==== Results concerning PAW augmentation regions ====

 Total pseudopotential strength Dij (hartree):
 Atom #  1 - Spin component 1
  -0.74520  -0.07684   0.00000   0.00000   0.00000   0.00000   0.00000   0.00000  -0.00002   0.00000   0.00006   0.00000 ...
  -0.07684  -0.09199   0.00000   0.00000   0.00000   0.00000   0.00000   0.00000  -0.00000   0.00000   0.00001   0.00000 ...
   0.00000   0.00000  -0.72013   0.00000   0.00007   0.14918   0.00000  -0.00020   0.00000   0.00000   0.00000   0.00000 ...
   0.00000   0.00000   0.00000  -0.72024   0.00000   0.00000   0.14969   0.00000   0.00000   0.00000   0.00000   0.00000 ...
   0.00000   0.00000   0.00007   0.00000  -0.71999  -0.00020   0.00000   0.14879   0.00000   0.00000   0.00000   0.00000 ...
   0.00000   0.00000   0.14918   0.00000  -0.00020   0.88588   0.00000   0.00007   0.00000   0.00000   0.00000   0.00000 ...
   0.00000   0.00000   0.00000   0.14969   0.00000   0.00000   0.88576   0.00000   0.00000   0.00000   0.00000   0.00000 ...
   0.00000   0.00000  -0.00020   0.00000   0.14879   0.00007   0.00000   0.88600   0.00000   0.00000   0.00000   0.00000 ...
  -0.00002  -0.00000   0.00000   0.00000   0.00000   0.00000   0.00000   0.00000  -0.18725   0.00000  -0.00000   0.00000 ...
   0.00000   0.00000   0.00000   0.00000   0.00000   0.00000   0.00000   0.00000   0.00000  -0.18725   0.00000   0.00000 ...
   0.00006   0.00001   0.00000   0.00000   0.00000   0.00000   0.00000   0.00000  -0.00000   0.00000  -0.18724   0.00000 ...
   0.00000   0.00000   0.00000   0.00000   0.00000   0.00000   0.00000   0.00000   0.00000   0.00000   0.00000  -0.18724 ...
   ...  only 12  components have been written...
 Atom #  1 - Spin component 2
  -0.66552  -0.06770   0.00000   0.00000   0.00000   0.00000   0.00000   0.00000   0.00003   0.00000   0.00002   0.00000 ...
  -0.06770  -0.09106   0.00000   0.00000   0.00000   0.00000   0.00000   0.00000   0.00001   0.00000  -0.00000   0.00000 ...
   0.00000   0.00000  -0.65423   0.00000   0.00015   0.07860   0.00000  -0.00027   0.00000   0.00000   0.00000   0.00000 ...
   0.00000   0.00000   0.00000  -0.65437   0.00000   0.00000   0.07912   0.00000   0.00000   0.00000   0.00000   0.00000 ...
   0.00000   0.00000   0.00015   0.00000  -0.65394  -0.00027   0.00000   0.07809   0.00000   0.00000   0.00000   0.00000 ...
   0.00000   0.00000   0.07860   0.00000  -0.00027   0.95697   0.00000   0.00015   0.00000   0.00000   0.00000   0.00000 ...
   0.00000   0.00000   0.00000   0.07912   0.00000   0.00000   0.95684   0.00000   0.00000   0.00000   0.00000   0.00000 ...
   0.00000   0.00000  -0.00027   0.00000   0.07809   0.00015   0.00000   0.95727   0.00000   0.00000   0.00000   0.00000 ...
   0.00003   0.00001   0.00000   0.00000   0.00000   0.00000   0.00000   0.00000  -0.17262   0.00000  -0.00002   0.00000 ...
   0.00000   0.00000   0.00000   0.00000   0.00000   0.00000   0.00000   0.00000   0.00000  -0.17258   0.00000   0.00002 ...
   0.00002  -0.00000   0.00000   0.00000   0.00000   0.00000   0.00000   0.00000  -0.00002   0.00000  -0.17269   0.00000 ...
   0.00000   0.00000   0.00000   0.00000   0.00000   0.00000   0.00000   0.00000   0.00000   0.00002   0.00000  -0.17254 ...
   ...  only 12  components have been written...
 Atom # 54 - Spin component 1
   0.62116  -1.78125   0.00027  -0.00000   0.00062  -0.00192  -0.00000  -0.00443
  -1.78125   5.17026  -0.00073  -0.00000  -0.00168   0.00520   0.00000   0.01204
   0.00027  -0.00073  -0.31036  -0.00000  -0.00026   0.97606   0.00000   0.00138
  -0.00000  -0.00000  -0.00000  -0.31009   0.00000   0.00000   0.97456  -0.00000
   0.00062  -0.00168  -0.00026   0.00000  -0.31075   0.00138  -0.00000   0.97809
  -0.00192   0.00520   0.97606   0.00000   0.00138  -0.34231  -0.00001  -0.00695
  -0.00000   0.00000   0.00000   0.97456  -0.00000  -0.00001  -0.33439   0.00001
  -0.00443   0.01204   0.00138  -0.00000   0.97809  -0.00695   0.00001  -0.35235
 Atom # 54 - Spin component 2
   0.62115  -1.78125   0.00027   0.00000   0.00062  -0.00193  -0.00000  -0.00443
  -1.78125   5.17024  -0.00073  -0.00000  -0.00168   0.00521   0.00001   0.01203
   0.00027  -0.00073  -0.31036  -0.00000  -0.00026   0.97608   0.00000   0.00138
   0.00000  -0.00000  -0.00000  -0.31009  -0.00000   0.00000   0.97459   0.00000
   0.00062  -0.00168  -0.00026  -0.00000  -0.31076   0.00138   0.00000   0.97812
  -0.00193   0.00521   0.97608   0.00000   0.00138  -0.34240  -0.00000  -0.00693
  -0.00000   0.00001   0.00000   0.97459   0.00000  -0.00000  -0.33454   0.00000
  -0.00443   0.01203   0.00138   0.00000   0.97812  -0.00693   0.00000  -0.35249


 Augmentation waves occupancies Rhoij:
 Atom #  1 - Spin component 1
   0.99248   0.00043   0.00000   0.00000   0.00000   0.00000   0.00000   0.00000  -0.00169   0.00000  -0.00003   0.00000 ...
   0.00043   0.11378   0.00000   0.00000   0.00000   0.00000   0.00000   0.00000   0.00220   0.00000   0.00325   0.00000 ...
   0.00000   0.00000   0.99838   0.00000   0.00068   0.01497   0.00000  -0.00047   0.00000   0.00000   0.00000   0.00000 ...
   0.00000   0.00000   0.00000   0.99663   0.00000   0.00000   0.01633   0.00000   0.00000   0.00000   0.00000   0.00000 ...
   0.00000   0.00000   0.00068   0.00000   0.99831  -0.00047   0.00000   0.01519   0.00000   0.00000   0.00000   0.00000 ...
   0.00000   0.00000   0.01497   0.00000  -0.00047   0.00477   0.00000   0.00008   0.00000   0.00000   0.00000   0.00000 ...
   0.00000   0.00000   0.00000   0.01633   0.00000   0.00000   0.00446   0.00000   0.00000   0.00000   0.00000   0.00000 ...
   0.00000   0.00000  -0.00047   0.00000   0.01519   0.00008   0.00000   0.00410   0.00000   0.00000   0.00000   0.00000 ...
  -0.00169   0.00220   0.00000   0.00000   0.00000   0.00000   0.00000   0.00000   0.03184   0.00000   0.00038   0.00000 ...
   0.00000   0.00000   0.00000   0.00000   0.00000   0.00000   0.00000   0.00000   0.00000   0.05860   0.00000  -0.00093 ...
  -0.00003   0.00325   0.00000   0.00000   0.00000   0.00000   0.00000   0.00000   0.00038   0.00000   0.01418   0.00000 ...
   0.00000   0.00000   0.00000   0.00000   0.00000   0.00000   0.00000   0.00000   0.00000  -0.00093   0.00000   0.05221 ...
   ...  only 12  components have been written...
 Atom #  1 - Spin component 2
   0.92885   0.13104   0.00000   0.00000   0.00000   0.00000   0.00000   0.00000  -0.00200   0.00000   0.00060   0.00000 ...
   0.13104   0.11211   0.00000   0.00000   0.00000   0.00000   0.00000   0.00000   0.00198   0.00000   0.00228   0.00000 ...
   0.00000   0.00000   0.98511   0.00000   0.00084   0.03782   0.00000  -0.00045   0.00000   0.00000   0.00000   0.00000 ...
   0.00000   0.00000   0.00000   0.98276   0.00000   0.00000   0.03922   0.00000   0.00000   0.00000   0.00000   0.00000 ...
   0.00000   0.00000   0.00084   0.00000   0.98499  -0.00045   0.00000   0.03808   0.00000   0.00000   0.00000   0.00000 ...
   0.00000   0.00000   0.03782   0.00000  -0.00045   0.00516   0.00000   0.00005   0.00000   0.00000   0.00000   0.00000 ...
   0.00000   0.00000   0.00000   0.03922   0.00000   0.00000   0.00495   0.00000   0.00000   0.00000   0.00000   0.00000 ...
   0.00000   0.00000  -0.00045   0.00000   0.03808   0.00005   0.00000   0.00462   0.00000   0.00000   0.00000   0.00000 ...
  -0.00200   0.00198   0.00000   0.00000   0.00000   0.00000   0.00000   0.00000   0.02224   0.00000   0.00033   0.00000 ...
   0.00000   0.00000   0.00000   0.00000   0.00000   0.00000   0.00000   0.00000   0.00000   0.04104   0.00000  -0.00015 ...
   0.00060   0.00228   0.00000   0.00000   0.00000   0.00000   0.00000   0.00000   0.00033   0.00000   0.00973   0.00000 ...
   0.00000   0.00000   0.00000   0.00000   0.00000   0.00000   0.00000   0.00000   0.00000  -0.00015   0.00000   0.03697 ...
   ...  only 12  components have been written...
 Atom # 54 - Spin component 1
   1.00565   0.01567  -0.00013   0.00002  -0.00050  -0.00048  -0.00000  -0.00114
   0.01567   0.00041  -0.00195  -0.00001  -0.00527  -0.00013  -0.00000  -0.00030
  -0.00013  -0.00195   1.09866  -0.00003   0.00636   0.05191  -0.00000   0.00131
   0.00002  -0.00001  -0.00003   1.11919   0.00001  -0.00000   0.05210  -0.00000
  -0.00050  -0.00527   0.00636   0.00001   1.12274   0.00130  -0.00000   0.05477
  -0.00048  -0.00013   0.05191  -0.00000   0.00130   0.00247  -0.00000   0.00011
  -0.00000  -0.00000  -0.00000   0.05210  -0.00000  -0.00000   0.00244  -0.00000
  -0.00114  -0.00030   0.00131  -0.00000   0.05477   0.00011  -0.00000   0.00270
 Atom # 54 - Spin component 2
   1.00564   0.01567  -0.00016  -0.00001  -0.00048  -0.00048  -0.00000  -0.00114
   0.01567   0.00041  -0.00194  -0.00000  -0.00527  -0.00013  -0.00000  -0.00030
  -0.00016  -0.00194   1.09870  -0.00003   0.00631   0.05191   0.00000   0.00130
  -0.00001  -0.00000  -0.00003   1.11935   0.00000  -0.00000   0.05211  -0.00000
  -0.00048  -0.00527   0.00631   0.00000   1.12288   0.00130  -0.00000   0.05478
  -0.00048  -0.00013   0.05191  -0.00000   0.00130   0.00247   0.00000   0.00011
  -0.00000  -0.00000   0.00000   0.05211  -0.00000   0.00000   0.00244  -0.00000
  -0.00114  -0.00030   0.00130  -0.00000   0.05478   0.00011  -0.00000   0.00270

 "PAW+U" part of augmentation waves occupancies Rhoij:
 Atom #  1 - L=3 ONLY - Spin component 1
   1.21703   0.00000   0.00032   0.00000   0.00101   0.00000   0.00085   0.07572   0.00000   0.00003   0.00000   0.00109   0.00000   0.00068
   0.00000   1.21384   0.00000   0.00048   0.00000  -0.00806   0.00000   0.00000   0.07559   0.00000  -0.00022   0.00000  -0.00190   0.00000
   0.00032   0.00000   1.22551   0.00000  -0.00157   0.00000  -0.00191   0.00007   0.00000   0.07982   0.00000  -0.00075   0.00000  -0.00047
   0.00000   0.00048   0.00000   1.22929   0.00000   0.00305   0.00000   0.00000  -0.00015   0.00000   0.08076   0.00000   0.00148   0.00000
   0.00101   0.00000  -0.00157   0.00000   1.21937   0.00000   0.00333   0.00115   0.00000  -0.00076   0.00000   0.07660   0.00000   0.00190
   0.00000  -0.00806   0.00000   0.00305   0.00000   1.21077   0.00000   0.00000  -0.00191   0.00000   0.00145   0.00000   0.07426   0.00000
   0.00085   0.00000  -0.00191   0.00000   0.00333   0.00000   1.22070   0.00070   0.00000  -0.00054   0.00000   0.00187   0.00000   0.07756
   0.07572   0.00000   0.00007   0.00000   0.00115   0.00000   0.00070   0.00655   0.00000   0.00003   0.00000   0.00043   0.00000  -0.00005
   0.00000   0.07559   0.00000  -0.00015   0.00000  -0.00191   0.00000   0.00000   0.00838   0.00000  -0.00027   0.00000   0.00197   0.00000
   0.00003   0.00000   0.07982   0.00000  -0.00076   0.00000  -0.00054   0.00003   0.00000   0.00716   0.00000   0.00016   0.00000   0.00008
   0.00000  -0.00022   0.00000   0.08076   0.00000   0.00145   0.00000   0.00000  -0.00027   0.00000   0.00713   0.00000   0.00050   0.00000
   0.00109   0.00000  -0.00075   0.00000   0.07660   0.00000   0.00187   0.00043   0.00000   0.00016   0.00000   0.00688   0.00000   0.00024
   0.00000  -0.00190   0.00000   0.00148   0.00000   0.07426   0.00000   0.00000   0.00197   0.00000   0.00050   0.00000   0.00869   0.00000
   0.00068   0.00000  -0.00047   0.00000   0.00190   0.00000   0.07756  -0.00005   0.00000   0.00008   0.00000   0.00024   0.00000   0.00672
 Atom #  1 - L=3 ONLY - Spin component 2
   0.01010   0.00000   0.00014   0.00000   0.00203   0.00000  -0.00056   0.00445   0.00000   0.00006   0.00000   0.00085   0.00000  -0.00026
   0.00000   0.01998   0.00000  -0.00142   0.00000   0.01219   0.00000   0.00000   0.00872   0.00000  -0.00062   0.00000   0.00521   0.00000
   0.00014   0.00000   0.01084   0.00000   0.00128   0.00000   0.00119   0.00006   0.00000   0.00478   0.00000   0.00058   0.00000   0.00045
   0.00000  -0.00142   0.00000   0.01056   0.00000   0.00167   0.00000   0.00000  -0.00063   0.00000   0.00463   0.00000   0.00077   0.00000
   0.00203   0.00000   0.00128   0.00000   0.01118   0.00000   0.00014   0.00084   0.00000   0.00057   0.00000   0.00494   0.00000   0.00007
   0.00000   0.01219   0.00000   0.00167   0.00000   0.02230   0.00000   0.00000   0.00522   0.00000   0.00076   0.00000   0.00974   0.00000
  -0.00056   0.00000   0.00119   0.00000   0.00014   0.00000   0.00963  -0.00028   0.00000   0.00047   0.00000   0.00007   0.00000   0.00428
   0.00445   0.00000   0.00006   0.00000   0.00084   0.00000  -0.00028   0.00196   0.00000   0.00002   0.00000   0.00036   0.00000  -0.00013
   0.00000   0.00872   0.00000  -0.00063   0.00000   0.00522   0.00000   0.00000   0.00381   0.00000  -0.00027   0.00000   0.00223   0.00000
   0.00006   0.00000   0.00478   0.00000   0.00057   0.00000   0.00047   0.00002   0.00000   0.00211   0.00000   0.00026   0.00000   0.00018
   0.00000  -0.00062   0.00000   0.00463   0.00000   0.00076   0.00000   0.00000  -0.00027   0.00000   0.00204   0.00000   0.00035   0.00000
   0.00085   0.00000   0.00058   0.00000   0.00494   0.00000   0.00007   0.00036   0.00000   0.00026   0.00000   0.00218   0.00000   0.00004
   0.00000   0.00521   0.00000   0.00077   0.00000   0.00974   0.00000   0.00000   0.00223   0.00000   0.00035   0.00000   0.00426   0.00000
  -0.00026   0.00000   0.00045   0.00000   0.00007   0.00000   0.00428  -0.00013   0.00000   0.00018   0.00000   0.00004   0.00000   0.00190

 ---------- DFT+U DATA --------------------------------------------------- 

 ====== For Atom     1, occupations for correlated orbitals. lpawu =   3

 Atom   1. Occ. for lpawu and for spin  1 =   6.82475
 Atom   1. Occ. for lpawu and for spin  2 =   0.01616
 => On atom   1,  local Mag. for lpawu is       -6.808586

 == Occupation matrix for correlated orbitals:

 Occupation matrix for spin  1
     0.97473    0.00000    0.00025    0.00000   -0.00129    0.00000   -0.00158
     0.00000    0.97786    0.00000    0.00021    0.00000    0.00459    0.00000
     0.00025    0.00000    0.97166    0.00000    0.00143    0.00000    0.00001
     0.00000    0.00021    0.00000    0.97222    0.00000   -0.00018    0.00000
    -0.00129    0.00000    0.00143    0.00000    0.97521    0.00000   -0.00210
     0.00000    0.00459    0.00000   -0.00018    0.00000    0.98019    0.00000
    -0.00158    0.00000    0.00001    0.00000   -0.00210    0.00000    0.97289


 Occupation matrix for spin  2
     0.00172    0.00000    0.00003    0.00000    0.00037    0.00000   -0.00008
     0.00000    0.00344    0.00000   -0.00025    0.00000    0.00215    0.00000
     0.00003    0.00000    0.00184    0.00000    0.00022    0.00000    0.00023
     0.00000   -0.00025    0.00000    0.00182    0.00000    0.00027    0.00000
     0.00037    0.00000    0.00022    0.00000    0.00190    0.00000    0.00002
     0.00000    0.00215    0.00000    0.00027    0.00000    0.00383    0.00000
    -0.00008    0.00000    0.00023    0.00000    0.00002    0.00000    0.00162




---OUTPUT-----------------------------------------------------------------------

 Cartesian coordinates (xcart) [bohr]
  7.56348800085000E+00  0.00000000000000E+00  3.02349555565470E+00
  7.56348800085000E+00  0.00000000000000E+00  9.07048666605705E+00
  7.56348800085000E+00  0.00000000000000E+00  1.51174777755523E+01
 -8.39715852501977E-16  7.56348800085000E+00  9.07048741564543E-10
 -8.39715852501977E-16  7.56348800085000E+00  6.04699111040235E+00
 -8.39715852501977E-16  7.56348800085000E+00  1.20939822208047E+01
  1.90890501957389E+00  1.24487606326541E+01  3.02349555565470E+00
  1.90890501957389E+00  1.24487606326541E+01  9.07048666605705E+00
  1.90890501957389E+00  1.24487606326541E+01  1.51174777755523E+01
  1.32180709821261E+01  2.67821536904594E+00  3.02349555565470E+00
  1.32180709821261E+01  2.67821536904594E+00  9.07048666605705E+00
  1.32180709821261E+01  2.67821536904594E+00  1.51174777755523E+01
  2.67821536904594E+00  1.90890501957389E+00  9.07048741564543E-10
  2.67821536904594E+00  1.90890501957389E+00  6.04699111040235E+00
  2.67821536904594E+00  1.90890501957389E+00  1.20939822208047E+01
  1.24487606326541E+01  1.32180709821261E+01  9.07048741564543E-10
  1.24487606326541E+01  1.32180709821261E+01  6.04699111040235E+00
  1.24487606326541E+01  1.32180709821261E+01  1.20939822208047E+01
  5.34289980932813E+00  1.03511674626858E+01  9.07048741564543E-10
  5.34289980932813E+00  1.03511674626858E+01  6.04699111040235E+00
  5.34289980932813E+00  1.03511674626858E+01  1.20939822208047E+01
  9.78407619237187E+00  4.77580853901415E+00  9.07048741564543E-10
  9.78407619237187E+00  4.77580853901415E+00  6.04699111040235E+00
  9.78407619237187E+00  4.77580853901415E+00  1.20939822208047E+01
  4.77580853901415E+00  5.34289980932813E+00  3.02349555565470E+00
  4.77580853901415E+00  5.34289980932813E+00  9.07048666605705E+00
  4.77580853901415E+00  5.34289980932813E+00  1.51174777755523E+01
  1.03511674626858E+01  9.78407619237187E+00  3.02349555565470E+00
  1.03511674626858E+01  9.78407619237187E+00  9.07048666605705E+00
  1.03511674626858E+01  9.78407619237187E+00  1.51174777755523E+01
  8.84215933196266E+00  1.10278169155804E+01  9.07048741564543E-10
  8.84215933196266E+00  1.10278169155804E+01  6.04699111040235E+00
  8.84215933196266E+00  1.10278169155804E+01  1.20939822208047E+01
  6.28481666973734E+00  4.09915908611955E+00  9.07048741564543E-10
  6.28481666973734E+00  4.09915908611955E+00  6.04699111040235E+00
  6.28481666973734E+00  4.09915908611955E+00  1.20939822208047E+01
  4.09915908611955E+00  8.84215933196266E+00  3.02349555565470E+00
  4.09915908611955E+00  8.84215933196266E+00  9.07048666605705E+00
  4.09915908611955E+00  8.84215933196266E+00  1.51174777755523E+01
  1.10278169155804E+01  6.28481666973734E+00  3.02349555565470E+00
  1.10278169155804E+01  6.28481666973734E+00  9.07048666605705E+00
  1.10278169155804E+01  6.28481666973734E+00  1.51174777755523E+01
  3.87336181637226E+00  1.35042832006127E+01  9.07048741564543E-10
  3.87336181637226E+00  1.35042832006127E+01  6.04699111040235E+00
  3.87336181637226E+00  1.35042832006127E+01  1.20939822208047E+01
  1.12536141853277E+01  1.62269280108732E+00  9.07048741564543E-10
  1.12536141853277E+01  1.62269280108732E+00  6.04699111040235E+00
  1.12536141853277E+01  1.62269280108732E+00  1.20939822208047E+01
  1.62269280108732E+00  3.87336181637226E+00  3.02349555565470E+00
  1.62269280108732E+00  3.87336181637226E+00  9.07048666605705E+00
  1.62269280108732E+00  3.87336181637226E+00  1.51174777755523E+01
  1.35042832006127E+01  1.12536141853277E+01  3.02349555565470E+00
  1.35042832006127E+01  1.12536141853277E+01  9.07048666605705E+00
  1.35042832006127E+01  1.12536141853277E+01  1.51174777755523E+01
 Reduced coordinates (xred)
  5.00000000000000E-01  0.00000000000000E+00  1.66666666700000E-01
  5.00000000000000E-01  0.00000000000000E+00  5.00000000050000E-01
  5.00000000000000E-01  0.00000000000000E+00  8.33333333350000E-01
 -5.55111512312578E-17  5.00000000000000E-01  5.00000041370185E-11
 -5.55111512312578E-17  5.00000000000000E-01  3.33333333350000E-01
 -5.55111512312578E-17  5.00000000000000E-01  6.66666666700000E-01
  1.26192110000000E-01  8.22951040000000E-01  1.66666666700000E-01
  1.26192110000000E-01  8.22951040000000E-01  5.00000000050000E-01
  1.26192110000000E-01  8.22951040000000E-01  8.33333333350000E-01
  8.73807890000000E-01  1.77048960000000E-01  1.66666666700000E-01
  8.73807890000000E-01  1.77048960000000E-01  5.00000000050000E-01
  8.73807890000000E-01  1.77048960000000E-01  8.33333333350000E-01
  1.77048960000000E-01  1.26192110000000E-01  5.00000041370185E-11
  1.77048960000000E-01  1.26192110000000E-01  3.33333333350000E-01
  1.77048960000000E-01  1.26192110000000E-01  6.66666666700000E-01
  8.22951040000000E-01  8.73807890000000E-01  5.00000041370185E-11
  8.22951040000000E-01  8.73807890000000E-01  3.33333333350000E-01
  8.22951040000000E-01  8.73807890000000E-01  6.66666666700000E-01
  3.53203430000000E-01  6.84285310000000E-01  5.00000041370185E-11
  3.53203430000000E-01  6.84285310000000E-01  3.33333333350000E-01
  3.53203430000000E-01  6.84285310000000E-01  6.66666666700000E-01
  6.46796570000000E-01  3.15714690000000E-01  5.00000041370185E-11
  6.46796570000000E-01  3.15714690000000E-01  3.33333333350000E-01
  6.46796570000000E-01  3.15714690000000E-01  6.66666666700000E-01
  3.15714690000000E-01  3.53203430000000E-01  1.66666666700000E-01
  3.15714690000000E-01  3.53203430000000E-01  5.00000000050000E-01
  3.15714690000000E-01  3.53203430000000E-01  8.33333333350000E-01
  6.84285310000000E-01  6.46796570000000E-01  1.66666666700000E-01
  6.84285310000000E-01  6.46796570000000E-01  5.00000000050000E-01
  6.84285310000000E-01  6.46796570000000E-01  8.33333333350000E-01
  5.84529210000000E-01  7.29016620000000E-01  5.00000041370185E-11
  5.84529210000000E-01  7.29016620000000E-01  3.33333333350000E-01
  5.84529210000000E-01  7.29016620000000E-01  6.66666666700000E-01
  4.15470790000000E-01  2.70983380000000E-01  5.00000041370185E-11
  4.15470790000000E-01  2.70983380000000E-01  3.33333333350000E-01
  4.15470790000000E-01  2.70983380000000E-01  6.66666666700000E-01
  2.70983380000000E-01  5.84529210000000E-01  1.66666666700000E-01
  2.70983380000000E-01  5.84529210000000E-01  5.00000000050000E-01
  2.70983380000000E-01  5.84529210000000E-01  8.33333333350000E-01
  7.29016620000000E-01  4.15470790000000E-01  1.66666666700000E-01
  7.29016620000000E-01  4.15470790000000E-01  5.00000000050000E-01
  7.29016620000000E-01  4.15470790000000E-01  8.33333333350000E-01
  2.56056585000000E-01  8.92728540000000E-01  5.00000041370185E-11
  2.56056585000000E-01  8.92728540000000E-01  3.33333333350000E-01
  2.56056585000000E-01  8.92728540000000E-01  6.66666666700000E-01
  7.43943415000000E-01  1.07271460000000E-01  5.00000041370185E-11
  7.43943415000000E-01  1.07271460000000E-01  3.33333333350000E-01
  7.43943415000000E-01  1.07271460000000E-01  6.66666666700000E-01
  1.07271460000000E-01  2.56056585000000E-01  1.66666666700000E-01
  1.07271460000000E-01  2.56056585000000E-01  5.00000000050000E-01
  1.07271460000000E-01  2.56056585000000E-01  8.33333333350000E-01
  8.92728540000000E-01  7.43943415000000E-01  1.66666666700000E-01
  8.92728540000000E-01  7.43943415000000E-01  5.00000000050000E-01
  8.92728540000000E-01  7.43943415000000E-01  8.33333333350000E-01
 Cartesian forces (fcart) [Ha/bohr]; max,rms= 6.61384E-03 2.22792E-03 (free atoms)
 -8.03112720359633E-20 -1.04404653646752E-19 -4.01556360179816E-21
 -8.03112720359633E-20 -1.04404653647169E-19 -5.36800021599796E-05
 -8.03112720359633E-20 -1.04404653646335E-19  5.36800021599796E-05
 -8.03112720359633E-20 -1.04404653646752E-19  9.40434864227834E-05
 -8.03112720359633E-20 -1.04404653646752E-19 -9.40434864227834E-05
 -8.03112720359633E-20 -1.04404653646752E-19 -4.01556360179816E-21
 -7.24243194032036E-04  1.25142796893907E-03 -4.01556360179816E-21
 -8.15609541196143E-04  1.24213720368820E-03  6.24913712953153E-05
 -8.15609541196143E-04  1.24213720368820E-03 -6.24913712953153E-05
  7.24243194032035E-04 -1.25142796893907E-03 -4.01556360179816E-21
  8.15609541196143E-04 -1.24213720368820E-03  6.24913712953153E-05
  8.15609541196143E-04 -1.24213720368820E-03 -6.24913712953153E-05
 -1.11455634580625E-03 -7.77980246417210E-04  1.61669146424180E-04
 -1.11455634580625E-03 -7.77980246417210E-04 -1.61669146424180E-04
 -1.24274471854023E-03 -7.68025430302284E-04 -4.01556360179816E-21
  1.11455634580625E-03  7.77980246417210E-04  1.61669146424180E-04
  1.11455634580625E-03  7.77980246417210E-04 -1.61669146424180E-04
  1.24274471854023E-03  7.68025430302284E-04 -4.01556360179816E-21
 -2.87355774664373E-04  1.17245484556455E-03  3.83808552684647E-04
 -2.87355774664373E-04  1.17245484556455E-03 -3.83808552684647E-04
 -3.80954012860298E-04  1.18628932656422E-03 -4.01556360179816E-21
  2.87355774664373E-04 -1.17245484556455E-03  3.83808552684647E-04
  2.87355774664373E-04 -1.17245484556455E-03 -3.83808552684647E-04
  3.80954012860298E-04 -1.18628932656422E-03 -4.01556360179816E-21
 -1.09592562579975E-03 -1.00237225315427E-03 -4.01556360179816E-21
 -1.17181571210187E-03 -4.81835445825933E-04  9.43174877599646E-05
 -1.17181571210187E-03 -4.81835445825933E-04 -9.43174877599646E-05
  1.09592562579975E-03  1.00237225315427E-03 -4.01556360179816E-21
  1.17181571210187E-03  4.81835445825933E-04  9.43174877599647E-05
  1.17181571210187E-03  4.81835445825933E-04 -9.43174877599646E-05
  2.31303584728721E-03  6.09360083687245E-03 -3.58605089846005E-04
  2.31303584728721E-03  6.09360083687245E-03  3.58605089846005E-04
  2.23246002357243E-03  6.48456397074613E-03 -4.01556360179816E-21
 -2.31303584728721E-03 -6.09360083687245E-03 -3.58605089846005E-04
 -2.31303584728721E-03 -6.09360083687245E-03  3.58605089846005E-04
 -2.23246002357243E-03 -6.48456397074613E-03 -4.01556360179816E-21
 -6.61383666066519E-03  2.04441092362983E-03 -4.01556360179816E-21
 -6.54624064003953E-03  2.26635619397156E-03 -4.33276622848623E-05
 -6.54624064003953E-03  2.26635619397156E-03  4.33276622848623E-05
  6.61383666066519E-03 -2.04441092362983E-03 -4.01556360179816E-21
  6.54624064003954E-03 -2.26635619397156E-03 -4.33276622848623E-05
  6.54624064003954E-03 -2.26635619397156E-03  4.33276622848623E-05
 -2.42905067330728E-03 -3.76484216831304E-03 -5.59242374979731E-04
 -2.42905067330728E-03 -3.76484216831304E-03  5.59242374979731E-04
 -1.67299442982614E-03 -3.69168443390847E-03 -4.01556360179816E-21
  2.42905067330728E-03  3.76484216831304E-03 -5.59242374979731E-04
  2.42905067330728E-03  3.76484216831304E-03  5.59242374979731E-04
  1.67299442982614E-03  3.69168443390847E-03 -4.01556360179816E-21
  3.55015082875559E-03 -1.54368807232940E-03 -4.01556360179816E-21
  3.60114006967671E-03 -1.60592365855164E-03  6.11624750354730E-05
  3.60114006967671E-03 -1.60592365855164E-03 -6.11624750354730E-05
 -3.55015082875559E-03  1.54368807232940E-03 -4.01556360179816E-21
 -3.60114006967671E-03  1.60592365855164E-03  6.11624750354730E-05
 -3.60114006967671E-03  1.60592365855164E-03 -6.11624750354730E-05
 Gradient of E wrt nuclear positions in reduced coordinates (gred)
  1.21486668475402E-18  1.57932669018022E-18  7.28462322063439E-20
  1.21486668475402E-18  1.57932669018653E-18  9.73807487554637E-04
  1.21486668475402E-18  1.57932669017391E-18 -9.73807487554637E-04
  1.21486668475402E-18  1.57932669018022E-18 -1.70604037908414E-03
  1.21486668475402E-18  1.57932669018022E-18  1.70604037908414E-03
  1.21486668475402E-18  1.57932669018022E-18  7.28462322063439E-20
  1.09556094155172E-02 -1.89303208539975E-02  7.28462322063439E-20
  1.23377059564316E-02 -1.87897796710101E-02 -1.13365430004219E-03
  1.23377059564316E-02 -1.87897796710101E-02  1.13365430004219E-03
 -1.09556094155172E-02  1.89303208539975E-02  7.28462322063439E-20
 -1.23377059564316E-02  1.87897796710101E-02 -1.13365430004219E-03
 -1.23377059564316E-02  1.87897796710101E-02  1.13365430004219E-03
  1.68598670955536E-02  1.17684885173498E-02 -2.93283567361341E-03
  1.68598670955536E-02  1.17684885173498E-02  2.93283567361341E-03
  1.87989695335975E-02  1.16179022528780E-02  7.28462322063439E-20
 -1.68598670955536E-02 -1.17684885173498E-02 -2.93283567361341E-03
 -1.68598670955536E-02 -1.17684885173498E-02  2.93283567361341E-03
 -1.87989695335975E-02 -1.16179022528780E-02  7.28462322063439E-20
  4.34682390729789E-03 -1.77356963119318E-02 -6.96266071819322E-03
  4.34682390729789E-03 -1.77356963119318E-02  6.96266071819322E-03
  5.76268221028904E-03 -1.79449701740098E-02  7.28462322063439E-20
 -4.34682390729789E-03  1.77356963119318E-02 -6.96266071819322E-03
 -4.34682390729789E-03  1.77356963119318E-02  6.96266071819322E-03
 -5.76268221028904E-03  1.79449701740098E-02  7.28462322063439E-20
  1.65780406411209E-02  1.51628610182346E-02  7.28462322063439E-20
  1.77260281553800E-02  7.28871322577731E-03 -1.71101103003442E-03
  1.77260281553800E-02  7.28871322577731E-03  1.71101103003442E-03
 -1.65780406411209E-02 -1.51628610182346E-02  7.28462322063439E-20
 -1.77260281553800E-02 -7.28871322577731E-03 -1.71101103003442E-03
 -1.77260281553800E-02 -7.28871322577731E-03  1.71101103003442E-03
 -3.49892377529854E-02 -9.21777536233086E-02  6.50544537100621E-03
 -3.49892377529854E-02 -9.21777536233086E-02 -6.50544537100621E-03
 -3.37703692013348E-02 -9.80918435669652E-02  7.28462322063439E-20
  3.49892377529854E-02  9.21777536233086E-02  6.50544537100621E-03
[...]
                       0.0000000000E+00  0.0000000000E+00  0.0000000000E+00
                       0.0000000000E+00  0.0000000000E+00  0.0000000000E+00
                       0.0000000000E+00  0.0000000000E+00  0.0000000000E+00
                       0.0000000000E+00  0.0000000000E+00  0.0000000000E+00
                       0.0000000000E+00  0.0000000000E+00  0.0000000000E+00
                       0.0000000000E+00  0.0000000000E+00  0.0000000000E+00
           strten     -2.2218286451E-06 -1.7540518168E-06 -7.5998406483E-06
                       0.0000000000E+00  0.0000000000E+00 -1.4288455761E-06
           symrel      1  0  0   0  1  0   0  0  1      -1  0  0   0 -1  0   0  0 -1
                      -1  0  0   0 -1  0   0  0  1       1  0  0   0  1  0   0  0 -1
            tnons      0.0000000  0.0000000  0.0000000    -0.0000000  0.0000000  0.3333333
                      -0.0000000  0.0000000  0.0000000     0.0000000  0.0000000  0.3333333
           toldff      1.00000000E-04
           tolmxf      1.00000000E-03
            typat      1  2  2  2  2  2  3  3  3  3  3  3  3  3  3  3  3  3  4  4
                       4  4  4  4  4  4  4  4  4  4  5  5  5  5  5  5  5  5  5  5
                       5  5  6  6  6  6  6  6  6  6  6  6  6  6
            upawu      2.57245278E-01  0.00000000E+00  0.00000000E+00  0.00000000E+00  0.00000000E+00  0.00000000E+00 Hartree
          usepawu           1
           useylm           1
         wfoptalg         114
           xangst      3.9296744939E+00  1.9282971441E-05  1.5949858836E+00
                       3.9296744939E+00  1.9282971441E-05  4.7852586523E+00
                       3.9296744939E+00  1.9282971441E-05  7.9746284147E+00
                       1.9282971440E-05  3.9295139259E+00  1.0070133875E-04
                       1.9282971440E-05  3.9295139259E+00  3.1898710659E+00
                       1.9282971440E-05  3.9295139259E+00  6.3799435335E+00
                       9.4786464218E-01  6.5171786892E+00  1.5949858836E+00
                       9.4801788689E-01  6.5162001981E+00  4.7870264590E+00
                       9.4801788689E-01  6.5162001981E+00  7.9728606081E+00
                       6.9115229115E+00  1.3418877286E+00  1.5949858836E+00
                       6.9113696668E+00  1.3428662197E+00  4.7870264590E+00
                       6.9113696668E+00  1.3428662197E+00  7.9728606081E+00
                       1.3416373448E+00  9.4917149380E-01 -1.4768589189E-04
                       1.3416373448E+00  9.4917149380E-01  3.1901194531E+00
                       1.3423395814E+00  9.4955337879E-01  6.3799435335E+00
                       6.5177502088E+00  6.9098949240E+00 -1.4768589189E-04
                       6.5177502088E+00  6.9098949240E+00  3.1901194531E+00
                       6.5170479723E+00  6.9095130390E+00  6.3799435335E+00
                       2.7468879030E+00  5.3755672547E+00  4.4001437477E-04
                       2.7468879030E+00  5.3755672547E+00  3.1895317529E+00
                       2.7481203507E+00  5.3763059664E+00  6.3799435335E+00
                       5.1124996507E+00  2.4834991631E+00  4.4001437477E-04
                       5.1124996507E+00  2.4834991631E+00  3.1895317529E+00
                       5.1112672029E+00  2.4827604514E+00  6.3799435335E+00
                       2.4839829067E+00  2.7465922581E+00  1.5949858836E+00
                       2.4831428826E+00  2.7490645109E+00  4.7864781739E+00
                       2.4831428826E+00  2.7490645109E+00  7.9734088932E+00
                       5.3754046470E+00  5.1124741597E+00  1.5949858836E+00
                       5.3762446710E+00  5.1100019069E+00  4.7864781739E+00
                       5.3762446710E+00  5.1100019069E+00  7.9734088932E+00
                       4.5867636600E+00  5.7784624502E+00 -1.9742568788E-03
                       4.5867636600E+00  5.7784624502E+00  3.1919460241E+00
                       4.5871385003E+00  5.7819031177E+00  6.3799435335E+00
                       3.2726238936E+00  2.0806039676E+00 -1.9742568788E-03
                       3.2726238936E+00  2.0806039676E+00  3.1919460241E+00
                       3.2722490534E+00  2.0771633001E+00  6.3799435335E+00
                       2.0765953993E+00  4.5862688590E+00  1.5949858836E+00
                       2.0768961782E+00  4.5877495014E+00  4.7852732730E+00
                       2.0768961782E+00  4.5877495014E+00  7.9746137941E+00
                       5.7827921543E+00  3.2727975588E+00  1.5949858836E+00
                       5.7824913754E+00  3.2713169164E+00  4.7852732730E+00
                       5.7824913754E+00  3.2713169164E+00  7.9746137941E+00
                       1.9380724746E+00  6.9965611826E+00 -2.5520761609E-03
                       1.9380724746E+00  6.9965611826E+00  3.1925238434E+00
                       1.9448465582E+00  6.9991034016E+00  6.3799435335E+00
                       5.9213150791E+00  8.6250523521E-01 -2.5520761609E-03
                       5.9213150791E+00  8.6250523521E-01  3.1925238434E+00
                       5.9145409954E+00  8.5996301621E-01  6.3799435335E+00
                       8.6202576522E-01  1.9435889268E+00  1.5949858836E+00
                       8.6136782531E-01  1.9450876849E+00  4.7857510262E+00
                       8.6136782531E-01  1.9450876849E+00  7.9741360408E+00
                       6.9973617884E+00  5.9154774910E+00  1.5949858836E+00
                       6.9980197283E+00  5.9139787329E+00  4.7857510262E+00
                       6.9980197283E+00  5.9139787329E+00  7.9741360408E+00
            xcart      7.4260085848E+00  3.6439535052E-05  3.0140865059E+00
                       7.4260085848E+00  3.6439535052E-05  9.0428283279E+00
                       7.4260085848E+00  3.6439535052E-05  1.5069863715E+01
                       3.6439535051E-05  7.4257051554E+00  1.9029795145E-04
                       3.6439535051E-05  7.4257051554E+00  6.0279827138E+00
                       3.6439535051E-05  7.4257051554E+00  1.2056346022E+01
                       1.7912045848E+00  1.2315682882E+01  3.0140865059E+00
                       1.7914941753E+00  1.2313833802E+01  9.0461689983E+00
                       1.7914941753E+00  1.2313833802E+01  1.5066523045E+01
                       1.3060885464E+01  2.5358003081E+00  3.0140865059E+00
                       1.3060595873E+01  2.5376493883E+00  9.0461689983E+00
                       1.3060595873E+01  2.5376493883E+00  1.5066523045E+01
                       2.5353271514E+00  1.7936741764E+00 -2.7908588936E-04
                       2.5353271514E+00  1.7936741764E+00  6.0284520976E+00
                       2.5366541862E+00  1.7943958345E+00  1.2056346022E+01
                       1.2316762897E+01  1.3057809013E+01 -2.7908588936E-04
                       1.2316762897E+01  1.3057809013E+01  6.0284520976E+00
                       1.2315435862E+01  1.3057087355E+01  1.2056346022E+01
                       5.1908658544E+00  1.0158349920E+01  8.3150666285E-04
                       5.1908658544E+00  1.0158349920E+01  6.0273415051E+00
                       5.1931948431E+00  1.0159745883E+01  1.2056346022E+01
                       9.6612241943E+00  4.6931332696E+00  8.3150666285E-04
                       9.6612241943E+00  4.6931332696E+00  6.0273415051E+00
                       9.6588952055E+00  4.6917373066E+00  1.2056346022E+01
                       4.6940474124E+00  5.1903071666E+00  3.0140865059E+00
                       4.6924599970E+00  5.1949790473E+00  9.0451328897E+00
                       4.6924599970E+00  5.1949790473E+00  1.5067559154E+01
                       1.0158042636E+01  9.6611760233E+00  3.0140865059E+00
                       1.0159630052E+01  9.6565041425E+00  9.0451328897E+00
                       1.0159630052E+01  9.6565041425E+00  1.5067559154E+01
                       8.6677271537E+00  1.0919711500E+01 -3.7308048169E-03
                       8.6677271537E+00  1.0919711500E+01  6.0319038165E+00
                       8.6684354991E+00  1.0926213419E+01  1.2056346022E+01
                       6.1843628949E+00  3.9317716898E+00 -3.7308048169E-03
                       6.1843628949E+00  3.9317716898E+00  6.0319038165E+00
                       6.1836545495E+00  3.9252697705E+00  1.2056346022E+01
                       3.9241965936E+00  8.6667921154E+00  3.0140865059E+00
                       3.9247649833E+00  8.6695901239E+00  9.0428559569E+00
                       3.9247649833E+00  8.6695901239E+00  1.5069836086E+01
                       1.0927893455E+01  6.1846910745E+00  3.0140865059E+00
                       1.0927325065E+01  6.1818930659E+00  9.0428559569E+00
                       1.0927325065E+01  6.1818930659E+00  1.5069836086E+01
                       3.6624262027E+00  1.3221584507E+01 -4.8227250144E-03
                       3.6624262027E+00  1.3221584507E+01  6.0329957367E+00
                       3.6752273655E+00  1.3226388605E+01  1.2056346022E+01
                       1.1189663846E+01  1.6298986827E+00 -4.8227250144E-03
                       1.1189663846E+01  1.6298986827E+00  6.0329957367E+00
                       1.1176862683E+01  1.6250945850E+00  1.2056346022E+01
                       1.6289926158E+00  3.6728507865E+00  3.0140865059E+00
                       1.6277492895E+00  3.6756830290E+00  9.0437587797E+00
                       1.6277492895E+00  3.6756830290E+00  1.5068933264E+01
                       1.3223097433E+01  1.1178632403E+01  3.0140865059E+00
                       1.3224340759E+01  1.1175800161E+01  9.0437587797E+00
                       1.3224340759E+01  1.1175800161E+01  1.5068933264E+01
             xred      5.0000000000E-01  4.1961550042E-23  1.6666666670E-01
                       5.0000000000E-01  4.1961550045E-23  5.0003145299E-01
                       5.0000000000E-01  4.1961550034E-23  8.3330188041E-01
                      -1.1130196213E-16  5.0000000000E-01  1.0522699062E-05
                      -1.1130196213E-16  5.0000000000E-01  3.3332281070E-01
                      -1.1130196213E-16  5.0000000000E-01  6.6666666670E-01
                       1.2059938584E-01  8.2925956760E-01  1.6666666670E-01
                       1.2061888485E-01  8.2913506214E-01  5.0021617841E-01
                       1.2061888485E-01  8.2913506214E-01  8.3311715499E-01
                       8.7940061416E-01  1.7074043240E-01  1.6666666670E-01
                       8.7938111515E-01  1.7086493786E-01  5.0021617841E-01
                       8.7938111515E-01  1.7086493786E-01  8.3311715499E-01
                       1.7070532040E-01  1.2077383212E-01 -1.5432309196E-05
                       1.7070532040E-01  1.2077383212E-01  3.3334876571E-01
                       1.7079467063E-01  1.2082242357E-01  6.6666666670E-01
                       8.2929467960E-01  8.7922616788E-01 -1.5432309196E-05
                       8.2929467960E-01  8.7922616788E-01  3.3334876571E-01
                       8.2920532937E-01  8.7917757643E-01  6.6666666670E-01
                       3.4950242422E-01  6.8399729293E-01  4.5978920501E-05
                       3.4950242422E-01  6.8399729293E-01  3.3328735448E-01
                       3.4965923671E-01  6.8409128748E-01  6.6666666670E-01
                       6.5049757578E-01  3.1600270707E-01  4.5978920501E-05
                       6.5049757578E-01  3.1600270707E-01  3.3328735448E-01
                       6.5034076329E-01  3.1590871252E-01  6.6666666670E-01
                       3.1605282225E-01  3.4948089268E-01  1.6666666670E-01
                       3.1594593856E-01  3.4979546809E-01  5.0015888584E-01
                       3.1594593856E-01  3.4979546809E-01  8.3317444756E-01
                       6.8394717775E-01  6.5051910732E-01  1.6666666670E-01
                       6.8405406144E-01  6.5020453191E-01  5.0015888584E-01
                       6.8405406144E-01  6.5020453191E-01  8.3317444756E-01
                       5.8360244737E-01  7.3526141552E-01 -2.0629826043E-04
                       5.8360244737E-01  7.3526141552E-01  3.3353963166E-01
                       5.8365013877E-01  7.3569921340E-01  6.6666666670E-01
                       4.1639755263E-01  2.6473858448E-01 -2.0629826043E-04
                       4.1639755263E-01  2.6473858448E-01  3.3353963166E-01
                       4.1634986123E-01  2.6430078660E-01  6.6666666670E-01
                       2.6421690866E-01  5.8356564650E-01  1.6666666670E-01
                       2.6425517794E-01  5.8375404651E-01  5.0003298076E-01
                       2.6425517794E-01  5.8375404651E-01  8.3330035264E-01
                       7.3578309134E-01  4.1643435350E-01  1.6666666670E-01
                       7.3574482206E-01  4.1624595349E-01  5.0003298076E-01
                       7.3574482206E-01  4.1624595349E-01  8.3330035264E-01
                       2.4659016212E-01  8.9025663282E-01 -2.6667698522E-04
                       2.4659016212E-01  8.9025663282E-01  3.3360001039E-01
                       2.4745207462E-01  8.9058010613E-01  6.6666666670E-01
                       7.5340983788E-01  1.0974336718E-01 -2.6667698522E-04
                       7.5340983788E-01  1.0974336718E-01  3.3360001039E-01
                       7.5254792538E-01  1.0941989387E-01  6.6666666670E-01
                       1.0968036016E-01  2.4730599426E-01  1.6666666670E-01
                       1.0959664493E-01  2.4749669996E-01  5.0008290317E-01
                       1.0959664493E-01  2.4749669996E-01  8.3325043023E-01
                       8.9031963984E-01  7.5269400574E-01  1.6666666670E-01
                       8.9040335507E-01  7.5250330004E-01  5.0008290317E-01
                       8.9040335507E-01  7.5250330004E-01  8.3325043023E-01
            znucl       63.00000   38.00000    3.00000   13.00000    7.00000    8.00000

================================================================================


- Timing analysis has been suppressed with timopt=0



================================================================================

 Suggested references for the acknowledgment of ABINIT usage.

 The users of ABINIT have little formal obligations with respect to the ABINIT group
 (those specified in the GNU General Public License, http://www.gnu.org/copyleft/gpl.txt).
 However, it is common practice in the scientific literature,
 to acknowledge the efforts of people that have made the research possible.
 In this spirit, please find below suggested citations of work written by ABINIT developers,
 corresponding to implementations inside of ABINIT that you have used in the present run.
 Note also that it will be of great value to readers of publications presenting these results,
 to read papers enabling them to understand the theoretical formalism and details
 of the ABINIT implementation.
 For information on why they are suggested, see also https://docs.abinit.org/theory/acknowledgments.
-
- [1] Gamma and beta cerium: DFT+U calculations of ground-state parameters.
- B. Amadon, F. Jollet and M. Torrent, Phys. Rev. B 77, 155104 (2008).
- Comment: DFT+U calculations, usepawu/=0. Strong suggestion to cite this paper.
- DOI and bibtex: see https://docs.abinit.org/theory/bibliography/#amadon2008a
-
- [2] Implementation of the Projector Augmented-Wave Method in the ABINIT code.
- M. Torrent, F. Jollet, F. Bottin, G. Zerah, and X. Gonze Comput. Mat. Science 42, 337, (2008).
- Comment: PAW calculations. Strong suggestion to cite this paper.
- DOI and bibtex: see https://docs.abinit.org/theory/bibliography/#torrent2008
-
- [3] Libxc: A library of exchange and correlation functionals for density functional theory.
- M.A.L. Marques, M.J.T. Oliveira, T. Burnus, Computer Physics Communications 183, 2227 (2012).
- Comment: to be cited when LibXC is used (negative value of ixc)
- Strong suggestion to cite this paper.
- DOI and bibtex: see https://docs.abinit.org/theory/bibliography/#marques2012
-
- [4] Large scale ab initio calculations based on three levels of parallelization
- F. Bottin, S. Leroux, A. Knyazev, G. Zerah, Comput. Mat. Science 42, 329, (2008).
- Comment: in case LOBPCG algorithm is used (wfoptalg=4/14/114).
- Strong suggestion to cite this paper in your publications.
- This paper is also available at http://www.arxiv.org/abs/0707.3405
- DOI and bibtex: see https://docs.abinit.org/theory/bibliography/#bottin2008
-
- [5] The Abinit project: Impact, environment and recent developments.
- Computer Phys. Comm. 248, 107042 (2020).
- X.Gonze, B. Amadon, G. Antonius, F.Arnardi, L.Baguet, J.-M.Beuken,
- J.Bieder, F.Bottin, J.Bouchet, E.Bousquet, N.Brouwer, F.Bruneval,
- G.Brunin, T.Cavignac, J.-B. Charraud, Wei Chen, M.Cote, S.Cottenier,
- J.Denier, G.Geneste, Ph.Ghosez, M.Giantomassi, Y.Gillet, O.Gingras,
- D.R.Hamann, G.Hautier, Xu He, N.Helbig, N.Holzwarth, Y.Jia, F.Jollet,
- W.Lafargue-Dit-Hauret, K.Lejaeghere, M.A.L.Marques, A.Martin, C.Martins,
- H.P.C. Miranda, F.Naccarato, K. Persson, G.Petretto, V.Planes, Y.Pouillon,
- S.Prokhorenko, F.Ricci, G.-M.Rignanese, A.H.Romero, M.M.Schmitt, M.Torrent,
- M.J.van Setten, B.Van Troeye, M.J.Verstraete, G.Zerah and J.W.Zwanzig
- Comment: the fifth generic paper describing the ABINIT project.
- Note that a version of this paper, that is not formatted for Computer Phys. Comm. 
- is available at https://www.abinit.org/sites/default/files/ABINIT20.pdf .
- The licence allows the authors to put it on the Web.
- DOI and bibtex: see https://docs.abinit.org/theory/bibliography/#gonze2020
-
- [6] ABINIT: Overview, and focus on selected capabilities
- J. Chem. Phys. 152, 124102 (2020).
- A. Romero, D.C. Allan, B. Amadon, G. Antonius, T. Applencourt, L.Baguet,
- J.Bieder, F.Bottin, J.Bouchet, E.Bousquet, F.Bruneval,
- G.Brunin, D.Caliste, M.Cote,
- J.Denier, C. Dreyer, Ph.Ghosez, M.Giantomassi, Y.Gillet, O.Gingras,
- D.R.Hamann, G.Hautier, F.Jollet, G. Jomard,
- A.Martin, 
- H.P.C. Miranda, F.Naccarato, G.Petretto, N.A. Pike, V.Planes,
- S.Prokhorenko, T. Rangel, F.Ricci, G.-M.Rignanese, M.Royo, M.Stengel, M.Torrent,
- M.J.van Setten, B.Van Troeye, M.J.Verstraete, J.Wiktor, J.W.Zwanziger, and X.Gonze.
- Comment: a global overview of ABINIT, with focus on selected capabilities .
- Note that a version of this paper, that is not formatted for J. Chem. Phys 
- is available at https://www.abinit.org/sites/default/files/ABINIT20_JPC.pdf .
- The licence allows the authors to put it on the Web.
- DOI and bibtex: see https://docs.abinit.org/theory/bibliography/#romero2020
-
- [7] Recent developments in the ABINIT software package.
- Computer Phys. Comm. 205, 106 (2016).
- X.Gonze, F.Jollet, F.Abreu Araujo, D.Adams, B.Amadon, T.Applencourt,
- C.Audouze, J.-M.Beuken, J.Bieder, A.Bokhanchuk, E.Bousquet, F.Bruneval
- D.Caliste, M.Cote, F.Dahm, F.Da Pieve, M.Delaveau, M.Di Gennaro,
- B.Dorado, C.Espejo, G.Geneste, L.Genovese, A.Gerossier, M.Giantomassi,
- Y.Gillet, D.R.Hamann, L.He, G.Jomard, J.Laflamme Janssen, S.Le Roux,
- A.Levitt, A.Lherbier, F.Liu, I.Lukacevic, A.Martin, C.Martins,
- M.J.T.Oliveira, S.Ponce, Y.Pouillon, T.Rangel, G.-M.Rignanese,
- A.H.Romero, B.Rousseau, O.Rubel, A.A.Shukri, M.Stankovski, M.Torrent,
- M.J.Van Setten, B.Van Troeye, M.J.Verstraete, D.Waroquier, J.Wiktor,
- B.Xu, A.Zhou, J.W.Zwanziger.
- Comment: the fourth generic paper describing the ABINIT project.
- Note that a version of this paper, that is not formatted for Computer Phys. Comm. 
- is available at https://www.abinit.org/sites/default/files/ABINIT16.pdf .
- The licence allows the authors to put it on the Web.
- DOI and bibtex: see https://docs.abinit.org/theory/bibliography/#gonze2016
-
- Proc.   0 individual time (sec): cpu=        168.6  wall=        176.8

================================================================================

 Calculation completed.
.Delivered   0 WARNINGs and  19 COMMENTs to log file.
+Overall time at end (sec) : cpu=      20987.6  wall=      21211.4
